<?xml version="1.0"?>
<VTKFile type="UnstructuredGrid"  version="0.1"  >
<UnstructuredGrid>
<Piece  NumberOfPoints="8165" NumberOfCells="16057">
<Points>
<DataArray  type="Float64"  NumberOfComponents="3"  format="ascii">-0.9987569212189223 0.04984588566069748 0  -0.9987569212189223 -0.04984588566069723 0  -0.9888308262251285 -0.1490422661761745 0  -0.969077286229078 -0.2467573976902936 0  -0.9396926207859084 -0.3420201433256687 0  -0.9009688679024191 -0.433883739117558 0  -0.8532908816321557 -0.5214352033794979 0  -0.7971325072229226 -0.6038044103254772 0  -0.7330518718298266 -0.6801727377709191 0  -0.6616858375968597 -0.749781202967734 0  -0.5837436722347905 -0.8119380057158559 0  -0.4999999999999996 -0.8660254037844388 0  -0.4112871031306116 -0.9115058523116731 0  -0.318486650251685 -0.9479273461671316 0  -0.2225209339563146 -0.9749279121818236 0  -0.1243437046474858 -0.992239206600172 0  -0.02493069173807316 -0.9996891820008162 0  0.07473009358642436 -0.9972037971811801 0  0.17364817766693 -0.9848077530122081 0  0.2708404681430051 -0.962624246950012 0  0.3653410243663945 -0.9308737486442045 0  0.4562106573531629 -0.8898718088114687 0  0.5425462638657597 -0.8400259231507713 0  0.6234898018587334 -0.7818314824680299 0  0.698236818086073 -0.7158668492597183 0  0.7660444431189778 -0.6427876096865396 0  0.8262387743159945 -0.5633200580636227 0  0.8782215733702283 -0.4782539786213186 0  0.9214762118704076 -0.3884347962746947 0  0.9555728057861406 -0.2947551744109047 0  0.9801724878485438 -0.1981461431993977 0  0.9950307753654013 -0.09956784659581729 0  1 0 0  0.9950307753654014 0.09956784659581666 0  0.9801724878485438 0.1981461431993976 0  0.9555728057861407 0.2947551744109042 0  0.9214762118704076 0.3884347962746947 0  0.8782215733702285 0.4782539786213182 0  0.8262387743159949 0.5633200580636221 0  0.766044443118978 0.6427876096865393 0  0.6982368180860729 0.7158668492597184 0  0.6234898018587336 0.7818314824680298 0  0.5425462638657594 0.8400259231507714 0  0.4562106573531631 0.8898718088114685 0  0.365341024366395 0.9308737486442042 0  0.2708404681430052 0.962624246950012 0  0.1736481776669304 0.984807753012208 0  0.07473009358642439 0.9972037971811801 0  -0.02493069173807291 0.9996891820008162 0  -0.1243437046474852 0.9922392066001721 0  -0.2225209339563143 0.9749279121818236 0  -0.3184866502516843 0.9479273461671318 0  -0.4112871031306114 0.9115058523116732 0  -0.5000000000000002 0.8660254037844385 0  -0.5837436722347896 0.8119380057158566 0  -0.6616858375968592 0.7497812029677344 0  -0.7330518718298263 0.6801727377709194 0  -0.7971325072229225 0.6038044103254774 0  -0.8532908816321556 0.5214352033794981 0  -0.900968867902419 0.4338837391175582 0  -0.9396926207859083 0.3420201433256689 0  -0.9690772862290778 0.2467573976902938 0  -0.9888308262251285 0.1490422661761747 0  0 -3.33066907387547e-16 0  0.2922351073784631 0.4064742824134499 0  -0.2283892344877995 0.445489683178082 0  -0.5006223129745928 1.249000902703301e-16 0  0.4851417124831425 -0.1235322591753062 0  -0.2283892344877995 -0.4454896831780823 0  0.2244381293544702 -0.4974059892257727 0  0.6017400542999141 0.2190154685308969 0  -0.5581446696297816 -0.3410751076665679 0  0.04888157636984874 0.6522793058172992 0  -0.5581446696297816 0.341075107666568 0  0.5318003682503499 -0.4338991867093802 0  -0.02655531792237059 -0.6858388666358241 0  0.2846822903539273 0.1036158799115578 0  0.2057127456600814 -0.2065170392348358 0  0.5499950705631735 0.4828159805817372 0  0.7365712010015821 -0.03676074036240858 0  -0.3332123644358574 -0.2036218372401125 0  -0.2503111564872963 0.1529619636172051 0  0.02918230080088918 0.3894107416776539 0  0.3119038197247055 0.6693125881472082 0  -0.4533085568472715 0.5829019520470146 0  -0.2086642468434529 0.7083237716612585 0  -0.4533085568472716 -0.5829019520470144 0  -0.7255122091309201 -0.1374604227155882 0  -0.7255122091309201 0.1374604227155883 0  -0.05009008488438581 -0.2556093177500643 0  0.3851790873862939 -0.6671497493660733 0  0.6709552008695683 -0.254288853195751 0  -0.2603565207201746 -0.7190461267637986 0  -0.01274908188504958 -0.4693251432427898 0  0.180383544466418 -0.7001037260965679 0  0.3847163576179377 -0.2973202411100294 0  -0.04995432007195971 0.1995423851608914 0  -0.1678190342621316 -0.0998261742388182 0  0.1403205714878223 0.2316624653136229 0  0.7349932089154046 0.3539540744095583 0  0.7879319621210741 0.1537397135554779 0  0.5698193606007648 0.03876274873020472 0  0.4558478162384035 0.3273736178084163 0  -0.4419539887971066 0.1852825496193718 0  -0.7464085988633791 -0.3252307397060302 0  -0.7464085988633791 0.3252307397060303 0  0.02064469536321903 0.827826152484757 0  -0.6299332241648122 0.5158342404302462 0  -0.6649689944704764 -0.4839644683910337 0  0.70800971084343 -0.4326557279765403 0  -0.3223706017906134 -0.01040698776897026 0  -0.5054246806996193 -0.1745782100334494 0  -0.4005901524784139 -0.416410058674076 0  -0.1042571859310078 0.5683311063186439 0  -0.4005901524784139 0.4164100586740762 0  0.1877980753282089 0.5464445901741976 0  0.1206822009066526 -0.3580378865832485 0  0.4460042554300219 0.1536417414647964 0  0.1738116160219865 0.7624188124093614 0  -0.8321051542296078 6.938893903907228e-17 0  -0.3796152393980441 0.7404669187156475 0  0.4930547478800816 0.6553511379173387 0  0.5542774023972679 -0.610736590905896 0  0.06765100167578174 -0.8273503122395667 0  -0.1263627236672069 -0.8227899655417861 0  0.1732568394682733 -0.03313223201635654 0  0.3244981183472287 -0.0945514879573747 0  0.3964818767539355 0.5278166619520006 0  0.8225174138930775 -0.2094386686091706 0  0.3862762456383678 -0.5051310802049933 0  -0.1330531929054866 -0.5703508657222929 0  -0.177647535364107 0.2946018482597728 0  0.2899951183081392 0.2550067652537422 0  0.08441079514704673 -0.5842176964322349 0  -0.1490115292621843 0.8450863768180583 0  0.2737504708168863 -0.814776874033456 0  -0.142353501387633 0.04833782824577596 0  0.06123953108016653 -0.1447132819643286 0  0.5259110046002531 -0.2630012123273205 0  -0.2028836910358441 -0.2907872567933579 0  0.6961680963734469 0.4954410198387236 0  -0.5896348602892731 0.1963655996997491 0  -0.4687501505461277 -0.7257671910482482 0  -0.3280940097505531 0.2841706514959641 0  0.4262046142439533 0.009495858005196894 0  -0.3034808298607995 -0.575360661977006 0  -0.655077525044371 5.551115123125783e-17 0  -0.2988533483177751 0.5829350221229744 0  0.2606280324088774 -0.3621577007324048 0  0.06109885742534778 0.1213198421233271 0  0.5883360859796991 0.3533614497113013 0  0.3043653793591053 0.8070919162104671 0  -0.5977628423620102 -0.6160630342157603 0  -0.5768580796341715 0.6421662051486873 0  -0.8346144062426474 -0.2203666761707024 0  -0.8558623315149202 0.173016302948436 0  0.8612845745432718 0.03178923580507788 0  0.6132723301615656 -0.08714674393221392 0  0.1628110939985944 0.3655319136460566 0  -0.09567032507741235 0.4355151996776715 0  0.05746843722344426 0.5194633991763268 0  -0.436019945709395 -0.2881300360956253 0  -0.07596061144871569 0.6983647226519493 0  -0.6275255320060281 -0.2275110374504959 0  -0.5226873339000571 -0.469341295132707 0  -0.1125799974105092 -0.3851292258287221 0  0.619011024823678 0.6063877701182406 0  -0.2763102364367199 0.8192202812544818 0  0.7745348125424459 -0.3258032396315157 0  -0.518060795045081 0.4596654131466001 0  0.6694847456509949 0.1140659043624926 0  -0.4164279919677704 -0.08967120904698817 0  -0.3237023997545292 -0.8247802633914654 0  0.8468194484731224 -0.0896151494438422 0  0.4258293249936974 0.7649442768810276 0  -0.4452381011188446 0.304057250497095 0  -0.1429733645462529 -0.705840003340848 0  0.6708719183416081 -0.5559925608496961 0  -0.3198578181913611 -0.3250798040022018 0  0.4976994035910101 -0.722786655132186 0  0.3915320294649418 -0.7878115305337891 0  0.3013332399688708 -0.585568912488973 0  -0.05021176719619284 -0.1065627974183157 0  -0.5778499190094819 -0.08523074965409963 0  -0.4069729011762343 0.07227633527667994 0  0.1017761104609 -0.4710042480313572 0  0.8313172614604811 0.2723171946851911 0  -0.06237900155959543 0.3161471027625475 0  0.7228946573831219 -0.1512956814359499 0  0.6036725534446189 -0.345871914207299 0  0.1705451400955359 0.08284736515785829 0  -0.3661633096233823 -0.6724877309579722 0  -0.7432283975853058 0.454177419441099 0  -0.7886115584549602 -0.4294549654143447 0  0.210520553651675 0.8682430176792441 0  0.1024345016269031 -0.2481784681422972 0  -0.8322817485593992 -0.1101956133222516 0  -0.477755773363484 0.6903516518401452 0  0.03638745749539424 0.2677067415209754 0  0.005824306220235123 -0.3559598780800155 0  -0.02393057554055716 -0.5773091896046807 0  -0.656853418329663 0.3875346040967115 0  0.2023789243848113 0.6558288354998336 0  -0.5778499190094819 0.08335021638867035 0  0.8934476994401067 0.1341710538308732 0  0.3910989747205646 -0.1850985530637385 0  0.2900570811000597 0.5137964995259913 0  0.452764781948902 0.4354733387228008 0  0.4254647729341454 -0.4009256457985336 0  0.07502847893507417 -0.7203260015172291 0  0.2868290874409293 -0.7087819889995405 0  0.1884682971157424 -0.5957245682636509 0  0.7140991219034133 0.2413235030500445 0  0.1696702818122023 -0.8041727389113376 0  -0.03976182458011464 0.09606993450337703 0  -0.144895576760654 0.1537255187907586 0  -0.0679575666902707 -0.9068307063252722 0  -0.6878282916538929 0.2367020581784782 0  0.2741614604364078 -0.001581553459900201 0  0.2887101103557479 -0.2647410788026469 0  -0.6958459635813904 -0.5838840913973433 0  0.4522629467729725 -0.586590978490136 0  -0.06798126544149206 0.9071469441830431 0  -0.2251516232954611 -0.8119800599910756 0  0.7531456777622132 0.06094452615252965 0  0.5941459501568455 -0.1872721025851182 0  -0.216657295148843 -0.6276165006205845 0  -0.228089505904504 -0.1874590519798677 0  -0.26831543489379 -0.09525095123827111 0  -0.1134800437664088 -0.1811377597871832 0  -0.3760665750606548 0.5157676543792213 0  -0.1992448771787426 0.6064188495583912 0  -0.5683961947462335 -0.7122395910944973 0  -0.3431915831704673 0.186560664
[...]
<PointData  Scalars="f_272"> 
<DataArray  type="Float64"  Name="f_272"  format="ascii">1.0600000000000001e+00  1.0600000000000001e+00  1.0599999999999998e+00  1.0600000000000001e+00  1.0600000000000001e+00  1.0600000000000001e+00  1.0600000000000001e+00  1.0599999999999998e+00  1.0600000000000001e+00  1.0600000000000003e+00  1.0599999999999998e+00  1.0600000000000001e+00  1.0600000000000001e+00  1.0600000000000001e+00  1.0600000000000003e+00  1.0600000000000001e+00  1.0600000000000001e+00  1.0600000000000001e+00  1.0600000000000001e+00  1.0599999999999998e+00  1.0600000000000001e+00  1.0600000000000001e+00  1.0600000000000001e+00  1.0600000000000001e+00  1.0600000000000001e+00  1.0600000000000001e+00  1.0600000000000001e+00  1.0600000000000001e+00  1.0600000000000001e+00  1.0600000000000001e+00  1.0600000000000001e+00  1.0599999999999998e+00  1.0600000000000001e+00  1.0600000000000001e+00  1.0600000000000001e+00  1.0599999999999998e+00  1.0600000000000001e+00  1.0600000000000001e+00  1.0600000000000001e+00  1.0599999999999998e+00  1.0600000000000001e+00  1.0600000000000001e+00  1.0600000000000001e+00  1.0600000000000001e+00  1.0599999999999998e+00  1.0599999999999998e+00  1.0599999999999998e+00  1.0600000000000001e+00  1.0599999999999998e+00  1.0600000000000001e+00  1.0600000000000001e+00  1.0600000000000001e+00  1.0600000000000001e+00  1.0599999999999998e+00  1.0599999999999998e+00  1.0600000000000001e+00  1.0600000000000001e+00  1.0600000000000001e+00  1.0600000000000001e+00  1.0599999999999998e+00  1.0599999999999998e+00  1.0599999999999998e+00  1.0600000000000001e+00  5.3216604343913432e-01  7.4248943002071444e-01  7.4239820130876721e-01  7.4246799536912511e-01  7.4243178028865087e-01  7.4239490403436559e-01  7.7743695953206227e-01  8.5381795831917262e-01  8.6495179106529829e-01  8.6493671136539196e-01  8.6495903370289173e-01  8.9084554445216313e-01  8.9085495180682139e-01  6.1339683515238219e-01  6.0749941716400135e-01  9.2630912348940175e-01  9.3059929260504082e-01  6.6458422671034345e-01  6.0843442678568627e-01  6.6453738636011128e-01  9.3132704393809862e-01  9.3129465811484391e-01  9.3129542653877295e-01  9.3132339349055215e-01  9.3126685223572880e-01  9.3132063452545688e-01  5.9260892310647328e-01  9.5477705350041120e-01  9.1530562277515848e-01  9.5075260940696826e-01  7.1917612102903694e-01  9.1953276281919671e-01  7.3154783352648367e-01  5.7018890476966710e-01  5.6637001076878279e-01  5.9741090782610751e-01  9.8568028082041614e-01  9.7717096921302593e-01  7.9775954392265624e-01  7.8979308729743825e-01  7.2631997406011251e-01  9.8460673203563609e-01  9.8463881768562478e-01  9.9338205521046419e-01  9.8464425630247288e-01  9.8983974267864228e-01  9.9440670833559897e-01  6.2383627858675550e-01  7.6879167953534766e-01  8.0308530377275655e-01  8.0309130689823249e-01  8.0312024568003904e-01  8.0309896610737319e-01  6.5651228152542507e-01  7.2085079907142013e-01  9.6297101362731730e-01  9.9576969648493219e-01  9.9579600329857476e-01  9.8836113785029489e-01  9.9128233316200831e-01  9.9458545745862093e-01  9.9599057700114191e-01  5.6012675782146826e-01  6.3250838628937422e-01  8.6981658575952325e-01  1.0056312360335597e+00  8.5018904504974613e-01  8.0937916928388443e-01  6.3606057672570648e-01  6.6178997009694485e-01  8.1314949171668871e-01  1.0108237542107970e+00  1.0116147696504811e+00  5.5255031739821803e-01  5.5437505726005065e-01  8.1132656502037392e-01  6.4224611376981700e-01  1.0088634325493953e+00  8.3847805076988746e-01  1.0140207719159808e+00  6.9377256175178226e-01  6.8843967815807261e-01  8.6201482644778937e-01  8.6574763571942659e-01  8.6574040542210895e-01  7.0231760651900743e-01  5.4881089576458575e-01  8.9080117439022188e-01  1.0132621828885493e+00  1.0110115966960689e+00  1.0136139857773874e+00  1.0136104343530101e+00  1.0188120228826123e+00  1.0128600506623990e+00  8.3679842285136985e-01  6.7085344540200598e-01  7.0214094634461233e-01  7.5939009444189953e-01  7.5936604197915214e-01  9.0358130918717650e-01  8.7577119142958704e-01  9.0360761852860261e-01  6.7159079603858185e-01  1.0153665603933253e+00  1.0142997015770683e+00  1.0007154092133295e+00  8.9580243953138583e-01  8.8507369300003635e-01  6.8823298868232652e-01  1.0251202664233001e+00  1.0071865299830831e+00  1.0199453311488611e+00  7.7226602179820569e-01  9.1738281374209463e-01  1.0178990550836606e+00  7.0934616038558451e-01  1.0210049232802969e+00  1.0221191119807187e+00  8.6855031135996785e-01  5.4471783697141807e-01  8.0811683640252518e-01  6.7959646759583037e-01  7.2826260462895864e-01  1.0195808465734719e+00  6.2377211149445178e-01  9.3141281767942685e-01  8.9829153648433269e-01  5.6448328109441248e-01  9.5145736737760478e-01  1.0177117724095750e+00  1.0306504150520608e+00  1.0285867664256891e+00  5.9634503888941037e-01  1.0002703295173196e+00  1.0002906708984169e+00  5.9707249732027312e-01  6.4309360798702819e-01  8.0308925765774819e-01  9.4921844721052562e-01  8.9084744007907590e-01  8.0795238936187852e-01  1.0329723147682948e+00  6.9286522952557394e-01  8.1295948309564814e-01  8.4394268412975004e-01  8.0855840792866573e-01  9.2047493411728731e-01  9.5066658089754896e-01  8.4117524283834111e-01  9.4274504402819970e-01  9.8948317202534330e-01  5.4202612100239167e-01  5.7228151318286602e-01  1.0354005131004544e+00  9.2295581608604926e-01  5.9902338866547400e-01  6.6533223216449500e-01  1.0350413755924521e+00  9.3303542440669607e-01  1.0355767511686131e+00  1.0020225842029968e+00  9.4406943638426766e-01  8.3968579588822245e-01  8.7291137124872065e-01  6.0939771847445368e-01  6.0411950649602708e-01  5.7310557877828627e-01  8.5216520951334374e-01  8.5213040139859064e-01  1.0362304789329368e+00  6.6463663866444578e-01  1.0316129799225147e+00  9.8706100845004963e-01  1.0325721836195572e+00  1.0285396719245774e+00  1.0325327752606375e+00  5.9830565156842574e-01  1.0378860314844283e+00  5.7359045682601306e-01  7.7536050774826304e-01  1.0338696870810204e+00  7.3414130175940218e-01  1.0314316301288964e+00  5.4044100320904753e-01  9.5672880973351937e-01  9.2149637795448580e-01  9.5861991278912229e-01  1.0334209910792880e+00  1.0374673012904303e+00  7.0749227144165605e-01  7.3535665142597317e-01  8.5368978618412805e-01  7.1444350517395550e-01  7.3479028531734403e-01  9.6052792395094488e-01  1.0361031863686323e+00  1.0337852274455084e+00  1.0401512008319580e+00  8.1577709205841842e-01  8.6254322752532175e-01  7.6815905875223589e-01  7.3949340830843957e-01  8.0389303719329153e-01  8.2338641952803993e-01  9.6371647621884449e-01  9.3435389648342437e-01  1.0386921033576171e+00  5.4317259520174077e-01  1.0396955566949970e+00  8.0726774886574904e-01  1.0363642276825986e+00  9.7773362856525636e-01  6.2483206864450413e-01  9.2708189569904043e-01  9.7592613017708552e-01  9.5017048959216943e-01  9.2943504895677487e-01  1.0321962701148737e+00  5.3931891887538275e-01  6.5684059583079357e-01  1.0415254182080540e+00  1.0350086890940211e+00  1.0413087198968902e+00  9.3603202185153478e-01  9.2712815432654727e-01  9.3604108584833612e-01  9.2713259476224497e-01  9.8338617619697366e-01  5.6797396108774245e-01  9.4424977621331585e-01  1.0354230507888484e+00  1.0408207714822748e+00  8.2098577532171280e-01  7.0767065383312167e-01  7.8229074828704381e-01  8.3885594337059299e-01  7.1722835874280844e-01  8.3990278973515708e-01  7.5928705154467890e-01  8.3883528380234085e-01  1.0404898896739676e+00  1.0405063437357351e+00  6.4141155625667035e-01  6.4274502001723632e-01  7.1238646232478753e-01  9.9141940696896180e-01  1.0413897109899937e+00  5.9654352512118713e-01  5.8222201500223669e-01  8.9385064490975086e-01  9.5301838077830503e-01  1.0426015870601508e+00  8.3318835944090741e-01  7.4368571018467855e-01  8.2892050195530576e-01  9.9020489575866133e-01  1.0375162780985119e+00  6.3953090881849950e-01  1.0383876570431760e+00  1.0431444959213558e+00  1.0361416942540556e+00  7.8538791061333313e-01  7.3700975470443997e-01  6.7874584412612704e-01  7.4837220208292854e-01  9.0826763114298936e-01  9.2647744182672820e-01  9.8596261069584290e-01  8.6398739795316259e-01  9.5253345944007606e-01  9.0545306156880878e-01  1.0410765991931763e+00  9.5563938106417212e-01  1.0442545953073850e+00  8.0503869895614488e-01  1.0378287120233773e+00  9.5556634449840083e-01  7.8797623018747565e-01  1.0444417552816967e+00  6.8338856124380054e-01  8.0396941867698168e-01  1.0368435390194972e+00  6.6054922476229005e-01  6.8387824179563639e-01  7.4660335837738179e-01  9.0345459754451196e-01  6.3554670273903791e-01  1.0451939453549615e+00  9.4807802274116093e-01  5.9940210213513823e-01  6.8882011215285699e-01  6.0810356494641471e-01  1.0451082946148318e+00  1.0380228900232487e+00  8.7406622851122595e-01  9.9945803824160595e-01  9.6107467706684024e-01  1.0425555785261755e+00  8.7201751414795736e-01  5.7572795800672838e-01  8.4986977603687897e-01  6.5675180178549875e-01  6.9673568541448205e-01  6.0663938743122225e-01  8.6668020180131322e-01  9.3458448462983623e-01  7.5153219825666440e-01  7.7594603106657556e-01  1.0408568048854709e+00  8.0312875431905850e-01  8.6567464493497115e-01  8.6461505766342805e-01  6.4377192165588071e-01  7.8026410245025524e-01  5.7022704238864563e-01  6.2563651088714156e-01  9.0294611207851494e-01  7.1601830521107479e-01  7.4839924063712848e-01  9.8850215127094343e-01  8.4816406540519274e-01  8.6712622156398655e-01  7.6491323221419205e-01  9.0622140029391729e-01  9.1240823554013872e-01  1.0431240090983869e+00  8.9274399835785934e-01  6.7813330866554444e-01  1.0432933614013504e+00  1.0435853579977765e+00  9.8747811116965822e-01  5.7180767041732894e-01  6.4863758162840468e-01  9.9820237281069069e-01  8.7316914570577209e-01  7.7924179271062399e-01  8.8549422846734704e-01  8.8804939301274444e-01  9.6825223635044511e-01  1.0395998714465484e+00  9.7093476278439961e-01  6.6819021850643068e-01  1.0477419776915142e+00  9.8339643758712025e-01  9.8686472006717008e-01  1.0416838984357808e+00  1.0328709261193212e+00  5.3703232835931791e-01  6.4745125422694982e-01  7.1453145793922324e-01  6.6187141677611250e-01  8.6364089557436519e-01  7.7407275621272187e-01  8.8445510164581598e-01  7.6579833588802226e-01  9.7007877947676568e-01  6.2115770668752757e-01  9.3810230404034967e-01  6.3088349653213394e-01  1.0439106062622754e+00  1.0445310311089613e+00  1.0484755603809737e+00  9.8458740451339510e-01  5.6271085216150274e-01  9.5524356843011449e-01  9.7237853065568713e-01  9.9056331340774195e-01  9.8501755832669213e-01  9.4180520069398543e-01  1.0471555486486965e+00  1.0444567300374321e+00  8.2386328125496489e-01  8.2625495213826350e-01  9.6209424473835936e-01  9.9344584902840760e-01  7.8815315870179481e-01  9.9932978150877261e-01  9.7644876059706487e-01  9.7587096643134774e-01  5.5722704537417445e-01  5.3634204975484112e-01  6.3007822846074124e-01  9.9958339514051731e-01  9.4525976553270452e-01  1.0575153876827006e+00  1.0440088324605048e+00  1.0042404979190331e+00  1.0447574205783579e+00  1.0120224297023854e+00  1.0449030695009878e+00  1.0424653569014048e+00  8.0879453664446832e-01  9.2995787246683825e-01  8.6430957744944303e-01  1.0220416734075775e+00  6.9328877216821305e-01  9.5746113028706126e-01  9.5290353758707058e-01  7.3579870308217432e-01  1.0575153876827008e+00  8.7648118360346938e-01  8.9955668325295635e-01  5.7240508952467939e-01  9.9028604658591768e-01  7.8953017023578975e-01  9.1092754228084094e-01  8.1041746858913766e-01  6.7427883002057187e-01  7.4965551734946256e-01  7.0698376213298242e-01  7.8594293054702913e-01  7.5400910416222999e-01  7.0784626442854592e-01  7.5755685677406204e-01  5.7427604320649972e-01  1.0575153876827008e+00  1.0476004840704929e+00  8.0684443172967280e-01  9.8224519375916164e-01  9.7927704531107829e-01  1.0575153876827008e+00  1.0445427431776257e+00  6.6186786359573224e-01  6.9404879388150464e-01  6.5028831142597399e-01  6.8041651418450155e-01  5.4068456837545031e-01  1.0038956710989404e+00  1.0575153876827008e+00  1.0437271596942856e+00  1.0071968564677074e+00  7.5462616118782111e-01  1.0460754728036790e+00  7.5920395259504481e-01  9.1501856200126319e-01  1.0100263948004471e+00  6.7493209282644429e-01  1.0210081062537799e+00  7.5038357992312588e-01  8.8886483289004758e-01  1.0478567668055823e+00  6.0219183989210368e-01  9.6456325723420233e-01  7.9536710811995281e-01  6.2690397177036550e-01  7.5375825310841849e-01  7.8631222407084345e-01  1.0035666236436283e+00  9.2629293576258009e-01  8.7159168590976666e-01  7.0906870207860861e-01  8.1562998400927678e-01  9.9424756033536632e-01  1.0117738836888825e+00  8.3812496050648400e-01  7.4975220129324860e-01  8.9666259396463333e-01  5.9593887402754531e-01  1.0013986305384825e+00  8.8131009829136353e-01  1.0102063300937503e+00  1.0575153876827006e+00  8.3894009155781146e-01  1.0575153876827006e+00  9.6153872212367120e-01  9.2090280305208605e-01  7.2977214776532395e-01  1.0575153876827006e+00  7.0594914151065391e-01  1.0460410456001799e+00  9.9022843827367990e-01  9.8402834838463271e-01  6.5462302132358463e-01  9.4999722758233718e-01  8.8618622564322191e-01  7.5823351489645108e-01  5.8420424274728822e-01  9.1419511774027451e-01  1.0165900492828257e+00  1.0144389875971980e+00  1.0445021354224042e+00  9.4244699974060631e-01  8.5681570525009854e-01  7.0287495730492855e-01  6.2756801243941873e-01  1.0455673303223514e+00  5.9703520897371098e-01  1.0140450454951186e+00  1.0575153876827006e+00  9.1196717534009886e-01  1.0078479355282179e+00  1.0467667649903394e+00  8.9368863109892516e-01  8.5112136450467235e-01  6.2227725683349988e-01  9.6070672936855472e-01  9.5721714160730942e-01  9.7563822960667890e-01  5.5698209424028411e-01  5.5317349306148644e-01  9.7427578040568852e-01  1.0461873415306928e+00  8.8537652643065201e-01  1.0198287278937224e+00  8.1864631809985755e-01  7.5486841426913820e-01  1.0176695183103577e+00  6.4432828201823888e-01  7.1033092500225670e-01  7.0599149795583793e-01  9.0384338242458429e-01  9.6004880650403435e-01  1.0575153876827006e+00  8.2100178851372452e-01  5.3573015591501327e-01  5.5079470938411024e-01  8.8036758149813665e-01  7.8894937092621631e-01  1.0496292079383127e+00  8.4706485647986196e-01  5.9398094417368963e-01  9.1347623462751237e-01  9.4289925196012281e-01  8.2240418294869777e-01  1.0279313547251596e+00  1.0575153876827008e+00  1.0465391838259028e+00  1.0224019382572149e+00  5.8066425279261968e-01  8.8275761543551112e-01  1.0183346511385467e+00  5.9854584165221802e-01  5.5312603712869313e-01  5.8796175518751570e-01  7.7747990204821404e-01  1.0575153876827008e+00  8.0516766572255105e-01  7.0144140955498158e-01  9.9557810042314054e-01  1.0182231456916790e+00  7.2727542749017737e-01  7.1705330751653729e-01  9.5613360249844670e-01  9.9023593239314434e-01  6.0526678070190520e-01  9.1096822233508001e-01  1.0406707258896897e+00  7.9038393006755547e-01  7.6920190346675577e-01  7.8724373522267366e-01  8.4075640869117652e-01  6.9257379247703554e-01  6.8004421762737566e-01  9.5239972610448809e-01  7.1488204137556310e-01  7.7046123020307056e-01  6.8883825188808734e-01  7.1007094050958075e-01  6.2575859884621310e-01  1.0454048061639556e+00  9.3442491829891849e-01  7.3787155330869991e-01  9.2917963937018144e-01  7.1259248462488678e-01  9.0582089201802518e-01  8.5008552956462213e-01  8.7728292504781180e-01  1.0431085753509264e+00  7.7126720050625408e-01  1.0377653585706281e+00  5.4770778710461132e-01  1.0491672961169567e+00  8.9791821715535980e-01  1.0464793085589923e+00  1.0491919592507486e+00  9.6309307807676958e-01  9.5073298486236169e-01  7.9648114261437319e-01  1.0575153876827006e+00  1.0472436232710274e+00  8.6311822886175793e-01  7.1697334158046100e-01  6.6155832879488785e-01  1.0575153876827006e+00  7.6175677989289869e-01  9.6016655620516289e-01  9.7634959567960011e-01  9.6013516074155270e-01  9.7633646694352150e-01  1.0463375614270840e+00  1.0477105290738031e+00  1.0239856473642028e+00  1.0201287064007467e+00  1.0489640916042180e+00  1.0465194067946411e+00  8.4521095664111068e-01  9.6825307727053045e-01  9.5764666762484851e-01  8.5597736522329149e-01  6.2500582293719464e-01  6.0964475203057189e-01  8.4507943400460461e-01  6.2746416266012928e-01  1.0458492782478108e+00  5.5753535450887381e-01  5.5114194567135621e-01  6.6924287877295974e-01  5.8308730043948209e-01  9.1535546908085474e-01  8.4913195551656229e-01  1.0076654620780559e+00  1.0177416203129783e+00  5.7658034156636639e-01  1.0129181888701515e+00  1.0086394240865577e+00  1.0248401041555404e+00  1.0575153876827006e+00  1.0483590800606151e+00  1.0241889123636327e+00  1.0053625826027519e+00  8.0046674589939371e-01  8.3792474531879968e-01  9.1010203695582015e-01  9.8667461989709904e-01  6.7107290234765304e-01  8.4709935104270140e-01  9.2565786788166093e-01  5.7112680947769845e-01  8.8739958109185935e-01  8.6106066414546667e-01  8.1709286869096265e-01  1.0475635469750439e+00  1.0093557561951878e+00  1.0575153876827008e+00  1.0483615550595053e+00  5.9471260182542118e-01  9.5778782371964044e-01  1.0485684580275421e+00  1.0235825974250978e+00  6.3450389081651770e-01  8.1861224145430911e-01  8.3953367105348287e-01  7.8581460354599042e-01  1.0070111585455581e+00  1.0204770550041142e+00  9.1401469127979817e-01  9.3340516141047603e-01  9.0919448399743519e-01  7.7879486391891695e-01  9.3258118458785733e-01  1.0186265222179200e+00  1.0488539531257359e+00  1.0107959323218882e+00  5.4859011272049785e-01  1.0090939641372922e+00  6.2294678822273197e-01  5.5750357911853221e-01  9.7963042070736639e-01  9.2676800719000507e-01  9.6092336380037702e-01  7.1923436928495588e-01  6.0882579677958648e-01  5.6139009343409929e-01  8.3944287639157822e-01  7.6974534702499675e-01  5.7638633596736155e-01  8.8662905894467758e-01  6.9634802406425234e-01  5.8699006768643958e-01  1.0480163732208421e+00  6.0746201197424587e-01  8.9265875270767092e-01  8.8019990350926158e-01  8.1667384279301314e-01  8.0643135596427173e-01  9.1669495997022443e-01  9.5662275926411056e-01  9.9890911409617233e-01  1.0502007484152922e+00  9.8344832670585125e-01  1.0217376990988107e+00  1.0485071619757669e+00  1.0575153876827006e+00  8.0629038932583175e-01  7.4105798552105195e-01  1.0575153876827006e+00  6.9609308243527201e-01  7.5066118741040699e-01  6.7852249783920482e-01  7.2937657532275846e-01  8.7544198977498255e-01  5.4411805330819241e-01  1.0484548130786742e+00  1.0205867670144415e+00  7.7720709739915894e-01  1.0157888682221414e+00  1.0207276754957750e+00  8.9600227754062722e-01  1.0501433163028624e+00  1.0226385244964922e+00  1.0478042359323592e+00  1.0495961869976134e+00  6.5540300464553636e-01  5.3465400390345896e-01  9.9716822995072918e-01  6.4535328871236730e-01  1.0083665505353077e+00  1.0472195351167939e+00  1.0575153876827006e+00  1.0575153876827006e+00  8.3023602467158486e-01  8.4715500439712721e-01  8.3113801052142500e-01  6.1393016848136217e-01  6.3990475400405367e-01  9.9657107327780259e-01  8.0991620076769355e-01  1.0575153876827006e+00  1.0482239108439935e+00  1.0575153876827008e+00  1.0164041262620527e+00  6.3750264930552614e-01  6.6783795476099173e-01  8.5092493431932792e-01  7.2654201326587853e-01  8.7752666539134416e-01  8.2908662645076214e-01  8.1695484960594666e-01  6.6177132609661748e-01  1.0489102773788532e+00  6.7019223488432866e-01  1.0497556937344124e+00  7.8080935268129437e-01  1.0220180945581356e+00  1.0072185338058415e+00  6.9694364498354411e-01  8.7241237206601141e-01  8.3733050333601111e-01  8.4794585557401780e-01  8.1494228627916832e-01  1.0575153876827008e+00  6.7836293979932039e-01  1.0498383382066032e+00  1.0140915016592418e+00  9.6212163831650976e-01  1.0575153876827006e+00  1.0575153876827010e+00  1.0507581541104367e+00  1.0263376943907541e+00  1.0484669421524015e+00  1.0575153876827006e+00  1.0493624448804841e+00  1.0489293306469196e+00  5.7475541070401104e-01  1.0575153876827006e+00  6.2382853547913120e-01  1.0258110128334925e+00  1.0268315443203051e+00  7.4350757670748502e-01  7.7816782213945634e-01  7.4731463741373649e-01  9.0338237357222739e-01  9.9381799074027388e-01  9.2331117723484224e-01  9.0230012894810463e-01  7.1512678160089882e-01  8.410756970316736