<?xml version="1.0"?>
<VTKFile type="UnstructuredGrid"  version="0.1"  >
<UnstructuredGrid>
<Piece  NumberOfPoints="8165" NumberOfCells="16057">
<Points>
<DataArray  type="Float64"  NumberOfComponents="3"  format="ascii">-0.9987569212189223 0.04984588566069748 0  -0.9987569212189223 -0.04984588566069723 0  -0.9888308262251285 -0.1490422661761745 0  -0.969077286229078 -0.2467573976902936 0  -0.9396926207859084 -0.3420201433256687 0  -0.9009688679024191 -0.433883739117558 0  -0.8532908816321557 -0.5214352033794979 0  -0.7971325072229226 -0.6038044103254772 0  -0.7330518718298266 -0.6801727377709191 0  -0.6616858375968597 -0.749781202967734 0  -0.5837436722347905 -0.8119380057158559 0  -0.4999999999999996 -0.8660254037844388 0  -0.4112871031306116 -0.9115058523116731 0  -0.318486650251685 -0.9479273461671316 0  -0.2225209339563146 -0.9749279121818236 0  -0.1243437046474858 -0.992239206600172 0  -0.02493069173807316 -0.9996891820008162 0  0.07473009358642436 -0.9972037971811801 0  0.17364817766693 -0.9848077530122081 0  0.2708404681430051 -0.962624246950012 0  0.3653410243663945 -0.9308737486442045 0  0.4562106573531629 -0.8898718088114687 0  0.5425462638657597 -0.8400259231507713 0  0.6234898018587334 -0.7818314824680299 0  0.698236818086073 -0.7158668492597183 0  0.7660444431189778 -0.6427876096865396 0  0.8262387743159945 -0.5633200580636227 0  0.8782215733702283 -0.4782539786213186 0  0.9214762118704076 -0.3884347962746947 0  0.9555728057861406 -0.2947551744109047 0  0.9801724878485438 -0.1981461431993977 0  0.9950307753654013 -0.09956784659581729 0  1 0 0  0.9950307753654014 0.09956784659581666 0  0.9801724878485438 0.1981461431993976 0  0.9555728057861407 0.2947551744109042 0  0.9214762118704076 0.3884347962746947 0  0.8782215733702285 0.4782539786213182 0  0.8262387743159949 0.5633200580636221 0  0.766044443118978 0.6427876096865393 0  0.6982368180860729 0.7158668492597184 0  0.6234898018587336 0.7818314824680298 0  0.5425462638657594 0.8400259231507714 0  0.4562106573531631 0.8898718088114685 0  0.365341024366395 0.9308737486442042 0  0.2708404681430052 0.962624246950012 0  0.1736481776669304 0.984807753012208 0  0.07473009358642439 0.9972037971811801 0  -0.02493069173807291 0.9996891820008162 0  -0.1243437046474852 0.9922392066001721 0  -0.2225209339563143 0.9749279121818236 0  -0.3184866502516843 0.9479273461671318 0  -0.4112871031306114 0.9115058523116732 0  -0.5000000000000002 0.8660254037844385 0  -0.5837436722347896 0.8119380057158566 0  -0.6616858375968592 0.7497812029677344 0  -0.7330518718298263 0.6801727377709194 0  -0.7971325072229225 0.6038044103254774 0  -0.8532908816321556 0.5214352033794981 0  -0.900968867902419 0.4338837391175582 0  -0.9396926207859083 0.3420201433256689 0  -0.9690772862290778 0.2467573976902938 0  -0.9888308262251285 0.1490422661761747 0  0 -3.33066907387547e-16 0  0.2922351073784631 0.4064742824134499 0  -0.2283892344877995 0.445489683178082 0  -0.5006223129745928 1.249000902703301e-16 0  0.4851417124831425 -0.1235322591753062 0  -0.2283892344877995 -0.4454896831780823 0  0.2244381293544702 -0.4974059892257727 0  0.6017400542999141 0.2190154685308969 0  -0.5581446696297816 -0.3410751076665679 0  0.04888157636984874 0.6522793058172992 0  -0.5581446696297816 0.341075107666568 0  0.5318003682503499 -0.4338991867093802 0  -0.02655531792237059 -0.6858388666358241 0  0.2846822903539273 0.1036158799115578 0  0.2057127456600814 -0.2065170392348358 0  0.5499950705631735 0.4828159805817372 0  0.7365712010015821 -0.03676074036240858 0  -0.3332123644358574 -0.2036218372401125 0  -0.2503111564872963 0.1529619636172051 0  0.02918230080088918 0.3894107416776539 0  0.3119038197247055 0.6693125881472082 0  -0.4533085568472715 0.5829019520470146 0  -0.2086642468434529 0.7083237716612585 0  -0.4533085568472716 -0.5829019520470144 0  -0.7255122091309201 -0.1374604227155882 0  -0.7255122091309201 0.1374604227155883 0  -0.05009008488438581 -0.2556093177500643 0  0.3851790873862939 -0.6671497493660733 0  0.6709552008695683 -0.254288853195751 0  -0.2603565207201746 -0.7190461267637986 0  -0.01274908188504958 -0.4693251432427898 0  0.180383544466418 -0.7001037260965679 0  0.3847163576179377 -0.2973202411100294 0  -0.04995432007195971 0.1995423851608914 0  -0.1678190342621316 -0.0998261742388182 0  0.1403205714878223 0.2316624653136229 0  0.7349932089154046 0.3539540744095583 0  0.7879319621210741 0.1537397135554779 0  0.5698193606007648 0.03876274873020472 0  0.4558478162384035 0.3273736178084163 0  -0.4419539887971066 0.1852825496193718 0  -0.7464085988633791 -0.3252307397060302 0  -0.7464085988633791 0.3252307397060303 0  0.02064469536321903 0.827826152484757 0  -0.6299332241648122 0.5158342404302462 0  -0.6649689944704764 -0.4839644683910337 0  0.70800971084343 -0.4326557279765403 0  -0.3223706017906134 -0.01040698776897026 0  -0.5054246806996193 -0.1745782100334494 0  -0.4005901524784139 -0.416410058674076 0  -0.1042571859310078 0.5683311063186439 0  -0.4005901524784139 0.4164100586740762 0  0.1877980753282089 0.5464445901741976 0  0.1206822009066526 -0.3580378865832485 0  0.4460042554300219 0.1536417414647964 0  0.1738116160219865 0.7624188124093614 0  -0.8321051542296078 6.938893903907228e-17 0  -0.3796152393980441 0.7404669187156475 0  0.4930547478800816 0.6553511379173387 0  0.5542774023972679 -0.610736590905896 0  0.06765100167578174 -0.8273503122395667 0  -0.1263627236672069 -0.8227899655417861 0  0.1732568394682733 -0.03313223201635654 0  0.3244981183472287 -0.0945514879573747 0  0.3964818767539355 0.5278166619520006 0  0.8225174138930775 -0.2094386686091706 0  0.3862762456383678 -0.5051310802049933 0  -0.1330531929054866 -0.5703508657222929 0  -0.177647535364107 0.2946018482597728 0  0.2899951183081392 0.2550067652537422 0  0.08441079514704673 -0.5842176964322349 0  -0.1490115292621843 0.8450863768180583 0  0.2737504708168863 -0.814776874033456 0  -0.142353501387633 0.04833782824577596 0  0.06123953108016653 -0.1447132819643286 0  0.5259110046002531 -0.2630012123273205 0  -0.2028836910358441 -0.2907872567933579 0  0.6961680963734469 0.4954410198387236 0  -0.5896348602892731 0.1963655996997491 0  -0.4687501505461277 -0.7257671910482482 0  -0.3280940097505531 0.2841706514959641 0  0.4262046142439533 0.009495858005196894 0  -0.3034808298607995 -0.575360661977006 0  -0.655077525044371 5.551115123125783e-17 0  -0.2988533483177751 0.5829350221229744 0  0.2606280324088774 -0.3621577007324048 0  0.06109885742534778 0.1213198421233271 0  0.5883360859796991 0.3533614497113013 0  0.3043653793591053 0.8070919162104671 0  -0.5977628423620102 -0.6160630342157603 0  -0.5768580796341715 0.6421662051486873 0  -0.8346144062426474 -0.2203666761707024 0  -0.8558623315149202 0.173016302948436 0  0.8612845745432718 0.03178923580507788 0  0.6132723301615656 -0.08714674393221392 0  0.1628110939985944 0.3655319136460566 0  -0.09567032507741235 0.4355151996776715 0  0.05746843722344426 0.5194633991763268 0  -0.436019945709395 -0.2881300360956253 0  -0.07596061144871569 0.6983647226519493 0  -0.6275255320060281 -0.2275110374504959 0  -0.5226873339000571 -0.469341295132707 0  -0.1125799974105092 -0.3851292258287221 0  0.619011024823678 0.6063877701182406 0  -0.2763102364367199 0.8192202812544818 0  0.7745348125424459 -0.3258032396315157 0  -0.518060795045081 0.4596654131466001 0  0.6694847456509949 0.1140659043624926 0  -0.4164279919677704 -0.08967120904698817 0  -0.3237023997545292 -0.8247802633914654 0  0.8468194484731224 -0.0896151494438422 0  0.4258293249936974 0.7649442768810276 0  -0.4452381011188446 0.304057250497095 0  -0.1429733645462529 -0.705840003340848 0  0.6708719183416081 -0.5559925608496961 0  -0.3198578181913611 -0.3250798040022018 0  0.4976994035910101 -0.722786655132186 0  0.3915320294649418 -0.7878115305337891 0  0.3013332399688708 -0.585568912488973 0  -0.05021176719619284 -0.1065627974183157 0  -0.5778499190094819 -0.08523074965409963 0  -0.4069729011762343 0.07227633527667994 0  0.1017761104609 -0.4710042480313572 0  0.8313172614604811 0.2723171946851911 0  -0.06237900155959543 0.3161471027625475 0  0.7228946573831219 -0.1512956814359499 0  0.6036725534446189 -0.345871914207299 0  0.1705451400955359 0.08284736515785829 0  -0.3661633096233823 -0.6724877309579722 0  -0.7432283975853058 0.454177419441099 0  -0.7886115584549602 -0.4294549654143447 0  0.210520553651675 0.8682430176792441 0  0.1024345016269031 -0.2481784681422972 0  -0.8322817485593992 -0.1101956133222516 0  -0.477755773363484 0.6903516518401452 0  0.03638745749539424 0.2677067415209754 0  0.005824306220235123 -0.3559598780800155 0  -0.02393057554055716 -0.5773091896046807 0  -0.656853418329663 0.3875346040967115 0  0.2023789243848113 0.6558288354998336 0  -0.5778499190094819 0.08335021638867035 0  0.8934476994401067 0.1341710538308732 0  0.3910989747205646 -0.1850985530637385 0  0.2900570811000597 0.5137964995259913 0  0.452764781948902 0.4354733387228008 0  0.4254647729341454 -0.4009256457985336 0  0.07502847893507417 -0.7203260015172291 0  0.2868290874409293 -0.7087819889995405 0  0.1884682971157424 -0.5957245682636509 0  0.7140991219034133 0.2413235030500445 0  0.1696702818122023 -0.8041727389113376 0  -0.03976182458011464 0.09606993450337703 0  -0.144895576760654 0.1537255187907586 0  -0.0679575666902707 -0.9068307063252722 0  -0.6878282916538929 0.2367020581784782 0  0.2741614604364078 -0.001581553459900201 0  0.2887101103557479 -0.2647410788026469 0  -0.6958459635813904 -0.5838840913973433 0  0.4522629467729725 -0.586590978490136 0  -0.06798126544149206 0.9071469441830431 0  -0.2251516232954611 -0.8119800599910756 0  0.7531456777622132 0.06094452615252965 0  0.5941459501568455 -0.1872721025851182 0  -0.216657295148843 -0.6276165006205845 0  -0.228089505904504 -0.1874590519798677 0  -0.26831543489379 -0.09525095123827111 0  -0.1134800437664088 -0.1811377597871832 0  -0.3760665750606548 0.5157676543792213 0  -0.1992448771787426 0.6064188495583912 0  -0.5683961947462335 -0.7122395910944973 0  -0.3431915831704673 0.186560664
[...]
<PointData  Scalars="f_3704"> 
<DataArray  type="Float64"  Name="f_3704"  format="ascii">1.8400000000000005e+00  1.8400000000000005e+00  1.8400000000000003e+00  1.8400000000000005e+00  1.8400000000000005e+00  1.8400000000000007e+00  1.8400000000000005e+00  1.8400000000000003e+00  1.8400000000000005e+00  1.8400000000000005e+00  1.8400000000000003e+00  1.8400000000000007e+00  1.8400000000000005e+00  1.8400000000000003e+00  1.8400000000000007e+00  1.8400000000000003e+00  1.8400000000000003e+00  1.8400000000000005e+00  1.8400000000000003e+00  1.8400000000000005e+00  1.8400000000000007e+00  1.8400000000000007e+00  1.8400000000000005e+00  1.8400000000000007e+00  1.8400000000000005e+00  1.8400000000000005e+00  1.8400000000000003e+00  1.8400000000000005e+00  1.8400000000000005e+00  1.8400000000000005e+00  1.8400000000000005e+00  1.8400000000000003e+00  1.8400000000000005e+00  1.8400000000000005e+00  1.8400000000000005e+00  1.8400000000000003e+00  1.8400000000000005e+00  1.8400000000000005e+00  1.8400000000000005e+00  1.8400000000000003e+00  1.8400000000000005e+00  1.8400000000000003e+00  1.8400000000000005e+00  1.8400000000000005e+00  1.8400000000000003e+00  1.8400000000000003e+00  1.8400000000000005e+00  1.8400000000000005e+00  1.8400000000000003e+00  1.8400000000000005e+00  1.8400000000000005e+00  1.8400000000000007e+00  1.8400000000000005e+00  1.8400000000000003e+00  1.8400000000000001e+00  1.8400000000000007e+00  1.8400000000000007e+00  1.8400000000000007e+00  1.8400000000000005e+00  1.8400000000000003e+00  1.8400000000000003e+00  1.8400000000000003e+00  1.8400000000000005e+00  2.8172972753859447e+00  2.5730515029003431e+00  2.5731867349265385e+00  2.5730837615734483e+00  2.5731358709955323e+00  2.5731913519029512e+00  2.5270905927960259e+00  2.4172246650452149e+00  2.3997588692947200e+00  2.3997701302048844e+00  2.3998490903094587e+00  2.3574257912144372e+00  2.3573867602852485e+00  2.7279954933763011e+00  2.7346532114018407e+00  2.2941357488978049e+00  2.2860591402156514e+00  2.6688742678229254e+00  2.7336036775731438e+00  2.6689421883548223e+00  2.2846955881697069e+00  2.2845946220751987e+00  2.2846958192594071e+00  2.2846523663335199e+00  2.2846911155750629e+00  2.2847722357169333e+00  2.7513243654740336e+00  2.2372901735937689e+00  2.3145779435727118e+00  2.2457916971772560e+00  2.6025989479708529e+00  2.3067961386483620e+00  2.5870282934111386e+00  2.7760989128427616e+00  2.7802838756206012e+00  2.7459700628545987e+00  2.1665598411218285e+00  2.1872241558321459e+00  2.4992196652357093e+00  2.5102553740951459e+00  2.5936576904672113e+00  2.1690878780276015e+00  2.1690877153324961e+00  2.1467281132415739e+00  2.1691584870652978e+00  2.1558648182203441e+00  2.1439253930115716e+00  2.7161504669239229e+00  2.5386809591407276e+00  2.4917971929753033e+00  2.4918051351744515e+00  2.4917325421451606e+00  2.4917715677508769e+00  2.6783733575069983e+00  2.6005005918438786e+00  2.2195977204530593e+00  2.1401127404941613e+00  2.1400398736508541e+00  2.1595526439953172e+00  2.1520658039885565e+00  2.1433118451500941e+00  2.1395040725983132e+00  2.7870977517625755e+00  2.7062280623113169e+00  2.3920703723397758e+00  2.1125001334788931e+00  2.4227632557246941e+00  2.4829287660741852e+00  2.7021371795454390e+00  2.6721724568538274e+00  2.4775184822272713e+00  2.0968119837660213e+00  2.0944222998474094e+00  2.7953336608475974e+00  2.7933519822871533e+00  2.4801376859045989e+00  2.6949996161401577e+00  2.1030165435682675e+00  2.4405507476535555e+00  2.0868978740045945e+00  2.6339228214780870e+00  2.6403732573263534e+00  2.4044164184193053e+00  2.3985319340102143e+00  2.3985242311706978e+00  2.6234897492046638e+00  2.7993817068388527e+00  2.3575005003836620e+00  2.0892595445769100e+00  2.0963953339894004e+00  2.0882159471702741e+00  2.0882107122921241e+00  2.0711398903783880e+00  2.0904144644639788e+00  2.4430682685329095e+00  2.6614475171206582e+00  2.6236910860261911e+00  2.5510741855964740e+00  2.5511180166625707e+00  2.3354641282238400e+00  2.3824565779260309e+00  2.3354793169080885e+00  2.6605684666673692e+00  2.0825204881052084e+00  2.0858942511052079e+00  2.1266574309024731e+00  2.3489776566228362e+00  2.3670878508412141e+00  2.6406235194143641e+00  2.0489026501854752e+00  2.1078661875439644e+00  2.0671992287712291e+00  2.5340378556346685e+00  2.3108239710743570e+00  2.0743377143511159e+00  2.6148499887642371e+00  2.0635964493385734e+00  2.0597966986031242e+00  2.3940197275214588e+00  2.8038037713365149e+00  2.4847547991390422e+00  2.6510340843435292e+00  2.5912016805724325e+00  2.0683193689186972e+00  2.7162135913130627e+00  2.2844617410315742e+00  2.3447580268068302e+00  2.7823455533882808e+00  2.2443369750843707e+00  2.0748882919878531e+00  2.0279463123106782e+00  2.0359387127894482e+00  2.7471593048762872e+00  2.1278900425834486e+00  2.1278515693311251e+00  2.7463488736320136e+00  2.6940174447793463e+00  2.4917690998665636e+00  2.2489197033630490e+00  2.3574187754140605e+00  2.4849346659011169e+00  2.0180637305212952e+00  2.6350130140532753e+00  2.4778335296080054e+00  2.4323001193705900e+00  2.4840993295582194e+00  2.3050649302839097e+00  2.2460312555820749e+00  2.4364911305608699e+00  2.2621425272517746e+00  2.1566488656006602e+00  2.8067057408193197e+00  2.7738030480339781e+00  2.0075156677956620e+00  2.3005480384959469e+00  2.7441640108728924e+00  2.6680000730437570e+00  2.0093696569941852e+00  2.2813571566315387e+00  2.0069814032116615e+00  2.1227259258333815e+00  2.2594417748417959e+00  2.4387678214508477e+00  2.3870948199733433e+00  2.7325164774686224e+00  2.7384550162990773e+00  2.7728991630622026e+00  2.4197651238418292e+00  2.4198273469265157e+00  2.0042743305861985e+00  2.6688264136859097e+00  2.0239585100967692e+00  2.1628153114383029e+00  2.0202155523539429e+00  2.0360841735568731e+00  2.0201595821396814e+00  2.7449672741197921e+00  1.9967115051416593e+00  2.7723664929917429e+00  2.5298701190900328e+00  2.0142172212427978e+00  2.5837604811588770e+00  2.0246299224759952e+00  2.8084128673465467e+00  2.2332998997298059e+00  2.3031702406996040e+00  2.2291716524770795e+00  2.0164321049066674e+00  1.9988067619595589e+00  2.6171113706419300e+00  2.5821897390331765e+00  2.4174524280695096e+00  2.6084870295687730e+00  2.5829230573023563e+00  2.2250642472462778e+00  2.0044742061735885e+00  2.0147391805704888e+00  1.9857372749300586e+00  2.4738194934675470e+00  2.4035591796899749e+00  2.5394877155942233e+00  2.5768931600476055e+00  2.4906741628968598e+00  2.4628355865992173e+00  2.2181274364057226e+00  2.2788021475603286e+00  1.9927780594309454e+00  2.8054712994719861e+00  1.9880205719752151e+00  2.4859213068875978e+00  2.0035986715837399e+00  2.1858339783482075e+00  2.7150163388459885e+00  2.2927030572705416e+00  2.1901260876150452e+00  2.2470185465669701e+00  2.2883025313332994e+00  2.0215123301597395e+00  2.8096201453717202e+00  2.6779889455581185e+00  1.9787031460483238e+00  2.0098953702757076e+00  1.9803092866398266e+00  2.2754432395484447e+00  2.2926634406496782e+00  2.2754420856398556e+00  2.2926668276313564e+00  2.1721230294502347e+00  2.7785276995873054e+00  2.2591726754063042e+00  2.0079462840960804e+00  1.9825593354206081e+00  2.4662812077495055e+00  2.6169010498045453e+00  2.5204975941111196e+00  2.4400105015347338e+00  2.6050476793497950e+00  2.4384102217371746e+00  2.5512407830939656e+00  2.4400352128656317e+00  1.9838815801760254e+00  1.9841705235248770e+00  2.6959551622480196e+00  2.6944121139483270e+00  2.6110580087410789e+00  2.1517057898751357e+00  1.9797064671201909e+00  2.7469432873132691e+00  2.7628538093233042e+00  2.3523317429632806e+00  2.2409971923007435e+00  1.9731520312635316e+00  2.4484454072403974e+00  2.5715267554315773e+00  2.4547225997075666e+00  2.1548289702403833e+00  1.9983048648367012e+00  2.6981397115868502e+00  1.9941567200898140e+00  1.9701995404694637e+00  2.0047356844000603e+00  2.5162841544449326e+00  2.5800740413788414e+00  2.6520357325805333e+00  2.5654669425606276e+00  2.3273392269447641e+00  2.2938937888599020e+00  2.1657000564219735e+00  2.4013676161653477e+00  2.2421644641427285e+00  2.3323016059475177e+00  1.9809939324576795e+00  2.2356270936911358e+00  1.9645244763393213e+00  2.4890654337926175e+00  1.9967534480576121e+00  2.2357283149065839e+00  2.5127799129364847e+00  1.9631986560834391e+00  2.6464620422632894e+00  2.4905710913366250e+00  2.0011610797577677e+00  2.6736405722239085e+00  2.6458844756286517e+00  2.5677576349935864e+00  2.3357358265289649e+00  2.7027328431101489e+00  1.9586252217946190e+00  2.2513215361489927e+00  2.7437457070340443e+00  2.6399233069253865e+00  2.7339784261431679e+00  1.9593498112012588e+00  1.9962382696978183e+00  2.3852288487489703e+00  2.1300838948218859e+00  2.2238721113753330e+00  1.9738854594831534e+00  2.3884942954749500e+00  2.7700145315871310e+00  2.4232307840585667e+00  2.6780919747622405e+00  2.6303020476207526e+00  2.7356226248271516e+00  2.3970860722433698e+00  2.2783038700815945e+00  2.5613792943815983e+00  2.5290860690334829e+00  1.9826174731144501e+00  2.4917806403738858e+00  2.3986824974090286e+00  2.4003007111817944e+00  2.6932324536922438e+00  2.5232487714206280e+00  2.7760581895472480e+00  2.7140930815494033e+00  2.3365880557216743e+00  2.6065568417630018e+00  2.5654373136008077e+00  2.1592684763042351e+00  2.4258890823770378e+00  2.3962955595398019e+00  2.5437953830686499e+00  2.3308583795439080e+00  2.3198403080643724e+00  1.9705711017218319e+00  2.3541956059272078e+00  2.6527666213254228e+00  1.9699840676625560e+00  1.9681844207508090e+00  2.1617717702640209e+00  2.7743254532419312e+00  2.6875809377967297e+00  2.1335178795485743e+00  2.3866362045580742e+00  2.5246521262140273e+00  2.3663601227520958e+00  2.3621766553762562e+00  2.2079419008681183e+00  1.9882916746845063e+00  2.2019035805548524e+00  2.6646086658084602e+00  1.9436491555239286e+00  2.1721847429386556e+00  2.1634881533245705e+00  1.9785314910004181e+00  2.0185780755758178e+00  2.8120781000974686e+00  2.6889495698315922e+00  2.6083909804457228e+00  2.6720726039171812e+00  2.4018945388891755e+00  2.5316105116746614e+00  2.3682286913891422e+00  2.5426181708172515e+00  2.2038190234716799e+00  2.7191930600853333e+00  2.2714485870182801e+00  2.7080826822737887e+00  1.9662892961568819e+00  1.9629455662087556e+00  1.9388080504462761e+00  2.1690794602055257e+00  2.7842809501058676e+00  2.2363479436938696e+00  2.1984350889974134e+00  2.1538478845025057e+00  2.1680639914544209e+00  2.2640425656925318e+00  1.9467288025853298e+00  1.9632107309572928e+00  2.4620925154487687e+00  2.4586036469047157e+00  2.2215599055676094e+00  2.1464219787336267e+00  2.5124867927012158e+00  2.1303298470784391e+00  2.1888589345616065e+00  2.1902858355903443e+00  2.7902534237857903e+00  2.8128188952685438e+00  2.7090127519009615e+00  2.1296908224666025e+00  2.2571041301087527e+00  1.8375153876827013e+00  1.9657053653606318e+00  2.1165441535545124e+00  1.9620508499783096e+00  2.0931963253941661e+00  1.9608107870501668e+00  1.9742084477229125e+00  2.4837214172550621e+00  2.2872517688093912e+00  2.4007086678943979e+00  2.0600383967862559e+00  2.6345027861162151e+00  2.2316974129897815e+00  2.2413163306333743e+00  2.5816262659080857e+00  1.8375153876827013e+00  2.3812304303858913e+00  2.3425273670012778e+00  2.7736670036090785e+00  2.1547316275737405e+00  2.5106253311706976e+00  2.3225078516687940e+00  2.4814268890174440e+00  2.6573710642327670e+00  2.5638006647701350e+00  2.6177438468990792e+00  2.5155153886439070e+00  2.5581391693328475e+00  2.6166781677271684e+00  2.5534996326221475e+00  2.7716104906615748e+00  1.8375153876827015e+00  1.9443113123336280e+00  2.4864767286702114e+00  2.1750361983556536e+00  2.1820493139608241e+00  1.8375153876827011e+00  1.9623601258629235e+00  2.6720780503430870e+00  2.6335789620256889e+00  2.6856487707539918e+00  2.6500218123063197e+00  2.8081506215168814e+00  2.1174144437090714e+00  1.8375153876827013e+00  1.9674029962551278e+00  2.1076579174981704e+00  2.5573489931178854e+00  1.9536240956403501e+00  2.5513240051466570e+00  2.3150509696321167e+00  2.0991936673791689e+00  2.6565913718366878e+00  2.0637116623520466e+00  2.5628505552356446e+00  2.3607239769425497e+00  1.9429682521415421e+00  2.7406154349738956e+00  2.2161917457242883e+00  2.5025700168691305e+00  2.7126428649200127e+00  2.5584563494765513e+00  2.5150824874538187e+00  2.1183500280632179e+00  2.2942197808739420e+00  2.3891427968199639e+00  2.6151592285283409e+00  2.4739899062555546e+00  2.1441405077255098e+00  2.0940191636908980e+00  2.4410633797082180e+00  2.5636715759380739e+00  2.3475171301868660e+00  2.7476123504703467e+00  2.1246539601130157e+00  2.3733615976187354e+00  2.0987259780680527e+00  1.8375153876827013e+00  2.4398461166557981e+00  1.8375153876827011e+00  2.2227038093034883e+00  2.3043150394695857e+00  2.5892817879835857e+00  1.8375153876827013e+00  2.6190081410584942e+00  1.9536905335476555e+00  2.1547571909375294e+00  2.1705129098745779e+00  2.6805849518868237e+00  2.2472631290986587e+00  2.3652727561735234e+00  2.5526064096571655e+00  2.7606592948325455e+00  2.3165661379439575e+00  2.0784550938942341e+00  2.0854617596397818e+00  1.9631816718967632e+00  2.2628102769313725e+00  2.4126106398566312e+00  2.6227866870385252e+00  2.7118901603781174e+00  1.9571560292732284e+00  2.7463864012103660e+00  2.0867297995579084e+00  1.8375153876827013e+00  2.3206489914762574e+00  2.1057223692449152e+00  1.9504284149866866e+00  2.3525821799560025e+00  2.4213820009445741e+00  2.7179285078656075e+00  2.2246000724805515e+00  2.2322523340372995e+00  2.1908182445458801e+00  2.7905206114817918e+00  2.7946562376241326e+00  2.1940249339925737e+00  1.9534271833932881e+00  2.3666623565080305e+00  2.0677489717079878e+00  2.4697118411553332e+00  2.5570077911815008e+00  2.0749888667567062e+00  2.6925843776796610e+00  2.6136228770023919e+00  2.6189494448733028e+00  2.3350544130180566e+00  2.2261396422727122e+00  1.8375153876827013e+00  2.4662754164539105e+00  2.8134758510444735e+00  2.7972345059875741e+00  2.3748671813201891e+00  2.5114245959207295e+00  1.9317765704793015e+00  2.4275634461656157e+00  2.7497987789205025e+00  2.3179945012119823e+00  2.2618211685530651e+00  2.4642278318495383e+00  2.0381101323498978e+00  1.8375153876827013e+00  1.9515443755687374e+00  2.0585134412093495e+00  2.7645743919769501e+00  2.3709598421310831e+00  2.0727489523763793e+00  2.7447024356646827e+00  2.7947061388611090e+00  2.7564925108645206e+00  2.5270054854349637e+00  1.8375153876827013e+00  2.4888742069370937e+00  2.6245517098410920e+00  2.1406876998464446e+00  2.0731018504651444e+00  2.5924286647371639e+00  2.6052652204781741e+00  2.2343784423111455e+00  2.1546384088565085e+00  2.7371654798487812e+00  2.3224148880233186e+00  1.9831590074915930e+00  2.5094551675173435e+00  2.5381391486936309e+00  2.5137709038885157e+00  2.4371546537318372e+00  2.6353670465371728e+00  2.6504846731983824e+00  2.2423769761687242e+00  2.6079589346779595e+00  2.5364339461822452e+00  2.6398924561719603e+00  2.6139091438788786e+00  2.7139519606130920e+00  1.9573659278381024e+00  2.2785497550190046e+00  2.5789852417555732e+00  2.2887384118651268e+00  2.6107962105948732e+00  2.3316476680629554e+00  2.4229141146697013e+00  2.3799297028683406e+00  1.9703591756014833e+00  2.5354014199394794e+00  1.9971938211896596e+00  2.8005759849901075e+00  1.9339794923408580e+00  2.3453448555828538e+00  1.9516118134582747e+00  1.9350066115645030e+00  2.2194099488950512e+00  2.2458807785983157e+00  2.5010106112501198e+00  1.8375153876827011e+00  1.9474578040660764e+00  2.4027328230938174e+00  2.6053713062362700e+00  2.6724486019529228e+00  1.8375153876827013e+00  2.5479645846595407e+00  2.2259459218152990e+00  2.1890491635873670e+00  2.2258439556088461e+00  2.1890659163222033e+00  1.9523120171843948e+00  1.9437938761278588e+00  2.0527504463232162e+00  2.0665482859500530e+00  1.9365029012333672e+00  1.9511479875479889e+00  2.4303664037612012e+00  2.2079420295443049e+00  2.2313154482134681e+00  2.4138748710122107e+00  2.7148167695375163e+00  2.7322326138539319e+00  2.4306409918010279e+00  2.7120045401153856e+00  1.9555248651884256e+00  2.7899206581798239e+00  2.7968583729801635e+00  2.6633587531639225e+00  2.7618957528416637e+00  2.3144513726069711e+00  2.4243919375402228e+00  2.1065554124511019e+00  2.0745442481647740e+00  2.7690781397371080e+00  2.0901908566651040e+00  2.1033626579233551e+00  2.0499170930261505e+00  1.8375153876827011e+00  1.9400537132035598e+00  2.0523642748371480e+00  2.1131827041367917e+00  2.4954295691575306e+00  2.4413698151801033e+00  2.3239091913190513e+00  2.1640290658304888e+00  2.6611862503300148e+00  2.4275202394262392e+00  2.2952897136076666e+00  2.7750699578422360e+00  2.3632558297845088e+00  2.4059249100759197e+00  2.4718910140778081e+00  1.9450949258378560e+00  2.1014231693406038e+00  1.8375153876827015e+00  1.9392807162915495e+00  2.7489824016920097e+00  2.2310999348595542e+00  1.9384157274668574e+00  2.0546069749802758e+00  2.7039245781966232e+00  2.4697119946881645e+00  2.4389308291682519e+00  2.5156963792664118e+00  2.1085241980671756e+00  2.0652461470288461e+00  2.3168599546527249e+00  2.2806383439009741e+00  2.3255126109906361e+00  2.5252510240365393e+00  2.2822030627191721e+00  2.0717314993771203e+00  1.9367306231211234e+00  2.0968639220533301e+00  2.7996192243367637e+00  2.1022658240039527e+00  2.7171570447317732e+00  2.7899514216249477e+00  2.1812151699797440e+00  2.2933432895152528e+00  2.2242435184275213e+00  2.6025298776630157e+00  2.7331629662920327e+00  2.7857235815354033e+00  2.4390974998578927e+00  2.5373742010142872e+00  2.7692924536929611e+00  2.3644888609263131e+00  2.6307754163083916e+00  2.7575723646136336e+00  1.9428075005342906e+00  2.7346936695399973e+00  2.3544121936319149e+00  2.3752192742430527e+00  2.4724906051895603e+00  2.4870940061569420e+00  2.3120212568067888e+00  2.2333750008531421e+00  2.1315749352970546e+00  1.9274552358622945e+00  2.1719261807342174e+00  2.0611082577702842e+00  1.9398626785597575e+00  1.8375153876827011e+00  2.4872984541412659e+00  2.5749103993678446e+00  1.8375153876827015e+00  2.6310762737672921e+00  2.5625044242255930e+00  2.6523061408515947e+00  2.5897833162451982e+00  2.3829558779920461e+00  2.8044500907447745e+00  1.9391598677262829e+00  2.0650447002780212e+00  2.5273978401793777e+00  2.0810616636514823e+00  2.0642901657233841e+00  2.3486041166299416e+00  1.9281609701023068e+00  2.0578581391929744e+00  1.9440276253177655e+00  1.9318035119742933e+00  2.6796691122401137e+00  2.8146307199500669e+00  2.1363696197696678e+00  2.6913992257555237e+00  2.1044027859358883e+00  1.9470761446406204e+00  1.8375153876827013e+00  1.8375153876827011e+00  2.4527613649360185e+00  2.4274566595504408e+00  2.4514382342109000e+00  2.7274037811639054e+00  2.6977084622407066e+00  2.1380987748278635e+00  2.4821499628389305e+00  1.8375153876827013e+00  1.9411851189651319e+00  1.8375153876827013e+00  2.0790208585169117e+00  2.7004701489999787e+00  2.6650185124867387e+00  2.4216367508330809e+00  2.5933640517292398e+00  2.3795946528760297e+00  2.4544302526499528e+00  2.4721178846850376e+00  2.6721869610493463e+00  1.9364256227571282e+00  2.6622298352398786e+00  1.9301128332712556e+00  2.5225199077286340e+00  2.0599514930842169e+00  2.1078632899185701e+00  2.6300564564824533e+00  2.3879017768615065e+00  2.4422670697000486e+00  2.4262317110985752e+00  2.4750132793741857e+00  1.8375153876827013e+00  2.6525063877445603e+00  1.9303161465348431e+00  2.0867968281092182e+00  2.2215578915561371e+00  1.8375153876827011e+00  1.8375153876827015e+00  1.9237883650581400e+00  2.0446691186698689e+00  1.9394421465759564e+00  1.8375153876827013e+00  1.9332753121886457e+00  1.9359466910572878e+00  2.7710845102795640e+00  1.8375153876827013e+00  2.7161559509230542e+00  2.0464849341930460e+00  2.0425141829740205e+00  2.5717535281087778e+00  2.5260591846861304e+00  2.5668457455647498e+00  2.3358345762465706e+00  2.1455502560619863e+00  2.2997937358982981e+00  2.3377451960713356e+00  2.6076419264763180e+00  2.4366304877206