<?xml version="1.0"?>
<VTKFile type="UnstructuredGrid"  version="0.1"  >
<UnstructuredGrid>
<Piece  NumberOfPoints="8165" NumberOfCells="16057">
<Points>
<DataArray  type="Float64"  NumberOfComponents="3"  format="ascii">-0.9987569212189223 0.04984588566069748 0  -0.9987569212189223 -0.04984588566069723 0  -0.9888308262251285 -0.1490422661761745 0  -0.969077286229078 -0.2467573976902936 0  -0.9396926207859084 -0.3420201433256687 0  -0.9009688679024191 -0.433883739117558 0  -0.8532908816321557 -0.5214352033794979 0  -0.7971325072229226 -0.6038044103254772 0  -0.7330518718298266 -0.6801727377709191 0  -0.6616858375968597 -0.749781202967734 0  -0.5837436722347905 -0.8119380057158559 0  -0.4999999999999996 -0.8660254037844388 0  -0.4112871031306116 -0.9115058523116731 0  -0.318486650251685 -0.9479273461671316 0  -0.2225209339563146 -0.9749279121818236 0  -0.1243437046474858 -0.992239206600172 0  -0.02493069173807316 -0.9996891820008162 0  0.07473009358642436 -0.9972037971811801 0  0.17364817766693 -0.9848077530122081 0  0.2708404681430051 -0.962624246950012 0  0.3653410243663945 -0.9308737486442045 0  0.4562106573531629 -0.8898718088114687 0  0.5425462638657597 -0.8400259231507713 0  0.6234898018587334 -0.7818314824680299 0  0.698236818086073 -0.7158668492597183 0  0.7660444431189778 -0.6427876096865396 0  0.8262387743159945 -0.5633200580636227 0  0.8782215733702283 -0.4782539786213186 0  0.9214762118704076 -0.3884347962746947 0  0.9555728057861406 -0.2947551744109047 0  0.9801724878485438 -0.1981461431993977 0  0.9950307753654013 -0.09956784659581729 0  1 0 0  0.9950307753654014 0.09956784659581666 0  0.9801724878485438 0.1981461431993976 0  0.9555728057861407 0.2947551744109042 0  0.9214762118704076 0.3884347962746947 0  0.8782215733702285 0.4782539786213182 0  0.8262387743159949 0.5633200580636221 0  0.766044443118978 0.6427876096865393 0  0.6982368180860729 0.7158668492597184 0  0.6234898018587336 0.7818314824680298 0  0.5425462638657594 0.8400259231507714 0  0.4562106573531631 0.8898718088114685 0  0.365341024366395 0.9308737486442042 0  0.2708404681430052 0.962624246950012 0  0.1736481776669304 0.984807753012208 0  0.07473009358642439 0.9972037971811801 0  -0.02493069173807291 0.9996891820008162 0  -0.1243437046474852 0.9922392066001721 0  -0.2225209339563143 0.9749279121818236 0  -0.3184866502516843 0.9479273461671318 0  -0.4112871031306114 0.9115058523116732 0  -0.5000000000000002 0.8660254037844385 0  -0.5837436722347896 0.8119380057158566 0  -0.6616858375968592 0.7497812029677344 0  -0.7330518718298263 0.6801727377709194 0  -0.7971325072229225 0.6038044103254774 0  -0.8532908816321556 0.5214352033794981 0  -0.900968867902419 0.4338837391175582 0  -0.9396926207859083 0.3420201433256689 0  -0.9690772862290778 0.2467573976902938 0  -0.9888308262251285 0.1490422661761747 0  0 -3.33066907387547e-16 0  0.2922351073784631 0.4064742824134499 0  -0.2283892344877995 0.445489683178082 0  -0.5006223129745928 1.249000902703301e-16 0  0.4851417124831425 -0.1235322591753062 0  -0.2283892344877995 -0.4454896831780823 0  0.2244381293544702 -0.4974059892257727 0  0.6017400542999141 0.2190154685308969 0  -0.5581446696297816 -0.3410751076665679 0  0.04888157636984874 0.6522793058172992 0  -0.5581446696297816 0.341075107666568 0  0.5318003682503499 -0.4338991867093802 0  -0.02655531792237059 -0.6858388666358241 0  0.2846822903539273 0.1036158799115578 0  0.2057127456600814 -0.2065170392348358 0  0.5499950705631735 0.4828159805817372 0  0.7365712010015821 -0.03676074036240858 0  -0.3332123644358574 -0.2036218372401125 0  -0.2503111564872963 0.1529619636172051 0  0.02918230080088918 0.3894107416776539 0  0.3119038197247055 0.6693125881472082 0  -0.4533085568472715 0.5829019520470146 0  -0.2086642468434529 0.7083237716612585 0  -0.4533085568472716 -0.5829019520470144 0  -0.7255122091309201 -0.1374604227155882 0  -0.7255122091309201 0.1374604227155883 0  -0.05009008488438581 -0.2556093177500643 0  0.3851790873862939 -0.6671497493660733 0  0.6709552008695683 -0.254288853195751 0  -0.2603565207201746 -0.7190461267637986 0  -0.01274908188504958 -0.4693251432427898 0  0.180383544466418 -0.7001037260965679 0  0.3847163576179377 -0.2973202411100294 0  -0.04995432007195971 0.1995423851608914 0  -0.1678190342621316 -0.0998261742388182 0  0.1403205714878223 0.2316624653136229 0  0.7349932089154046 0.3539540744095583 0  0.7879319621210741 0.1537397135554779 0  0.5698193606007648 0.03876274873020472 0  0.4558478162384035 0.3273736178084163 0  -0.4419539887971066 0.1852825496193718 0  -0.7464085988633791 -0.3252307397060302 0  -0.7464085988633791 0.3252307397060303 0  0.02064469536321903 0.827826152484757 0  -0.6299332241648122 0.5158342404302462 0  -0.6649689944704764 -0.4839644683910337 0  0.70800971084343 -0.4326557279765403 0  -0.3223706017906134 -0.01040698776897026 0  -0.5054246806996193 -0.1745782100334494 0  -0.4005901524784139 -0.416410058674076 0  -0.1042571859310078 0.5683311063186439 0  -0.4005901524784139 0.4164100586740762 0  0.1877980753282089 0.5464445901741976 0  0.1206822009066526 -0.3580378865832485 0  0.4460042554300219 0.1536417414647964 0  0.1738116160219865 0.7624188124093614 0  -0.8321051542296078 6.938893903907228e-17 0  -0.3796152393980441 0.7404669187156475 0  0.4930547478800816 0.6553511379173387 0  0.5542774023972679 -0.610736590905896 0  0.06765100167578174 -0.8273503122395667 0  -0.1263627236672069 -0.8227899655417861 0  0.1732568394682733 -0.03313223201635654 0  0.3244981183472287 -0.0945514879573747 0  0.3964818767539355 0.5278166619520006 0  0.8225174138930775 -0.2094386686091706 0  0.3862762456383678 -0.5051310802049933 0  -0.1330531929054866 -0.5703508657222929 0  -0.177647535364107 0.2946018482597728 0  0.2899951183081392 0.2550067652537422 0  0.08441079514704673 -0.5842176964322349 0  -0.1490115292621843 0.8450863768180583 0  0.2737504708168863 -0.814776874033456 0  -0.142353501387633 0.04833782824577596 0  0.06123953108016653 -0.1447132819643286 0  0.5259110046002531 -0.2630012123273205 0  -0.2028836910358441 -0.2907872567933579 0  0.6961680963734469 0.4954410198387236 0  -0.5896348602892731 0.1963655996997491 0  -0.4687501505461277 -0.7257671910482482 0  -0.3280940097505531 0.2841706514959641 0  0.4262046142439533 0.009495858005196894 0  -0.3034808298607995 -0.575360661977006 0  -0.655077525044371 5.551115123125783e-17 0  -0.2988533483177751 0.5829350221229744 0  0.2606280324088774 -0.3621577007324048 0  0.06109885742534778 0.1213198421233271 0  0.5883360859796991 0.3533614497113013 0  0.3043653793591053 0.8070919162104671 0  -0.5977628423620102 -0.6160630342157603 0  -0.5768580796341715 0.6421662051486873 0  -0.8346144062426474 -0.2203666761707024 0  -0.8558623315149202 0.173016302948436 0  0.8612845745432718 0.03178923580507788 0  0.6132723301615656 -0.08714674393221392 0  0.1628110939985944 0.3655319136460566 0  -0.09567032507741235 0.4355151996776715 0  0.05746843722344426 0.5194633991763268 0  -0.436019945709395 -0.2881300360956253 0  -0.07596061144871569 0.6983647226519493 0  -0.6275255320060281 -0.2275110374504959 0  -0.5226873339000571 -0.469341295132707 0  -0.1125799974105092 -0.3851292258287221 0  0.619011024823678 0.6063877701182406 0  -0.2763102364367199 0.8192202812544818 0  0.7745348125424459 -0.3258032396315157 0  -0.518060795045081 0.4596654131466001 0  0.6694847456509949 0.1140659043624926 0  -0.4164279919677704 -0.08967120904698817 0  -0.3237023997545292 -0.8247802633914654 0  0.8468194484731224 -0.0896151494438422 0  0.4258293249936974 0.7649442768810276 0  -0.4452381011188446 0.304057250497095 0  -0.1429733645462529 -0.705840003340848 0  0.6708719183416081 -0.5559925608496961 0  -0.3198578181913611 -0.3250798040022018 0  0.4976994035910101 -0.722786655132186 0  0.3915320294649418 -0.7878115305337891 0  0.3013332399688708 -0.585568912488973 0  -0.05021176719619284 -0.1065627974183157 0  -0.5778499190094819 -0.08523074965409963 0  -0.4069729011762343 0.07227633527667994 0  0.1017761104609 -0.4710042480313572 0  0.8313172614604811 0.2723171946851911 0  -0.06237900155959543 0.3161471027625475 0  0.7228946573831219 -0.1512956814359499 0  0.6036725534446189 -0.345871914207299 0  0.1705451400955359 0.08284736515785829 0  -0.3661633096233823 -0.6724877309579722 0  -0.7432283975853058 0.454177419441099 0  -0.7886115584549602 -0.4294549654143447 0  0.210520553651675 0.8682430176792441 0  0.1024345016269031 -0.2481784681422972 0  -0.8322817485593992 -0.1101956133222516 0  -0.477755773363484 0.6903516518401452 0  0.03638745749539424 0.2677067415209754 0  0.005824306220235123 -0.3559598780800155 0  -0.02393057554055716 -0.5773091896046807 0  -0.656853418329663 0.3875346040967115 0  0.2023789243848113 0.6558288354998336 0  -0.5778499190094819 0.08335021638867035 0  0.8934476994401067 0.1341710538308732 0  0.3910989747205646 -0.1850985530637385 0  0.2900570811000597 0.5137964995259913 0  0.452764781948902 0.4354733387228008 0  0.4254647729341454 -0.4009256457985336 0  0.07502847893507417 -0.7203260015172291 0  0.2868290874409293 -0.7087819889995405 0  0.1884682971157424 -0.5957245682636509 0  0.7140991219034133 0.2413235030500445 0  0.1696702818122023 -0.8041727389113376 0  -0.03976182458011464 0.09606993450337703 0  -0.144895576760654 0.1537255187907586 0  -0.0679575666902707 -0.9068307063252722 0  -0.6878282916538929 0.2367020581784782 0  0.2741614604364078 -0.001581553459900201 0  0.2887101103557479 -0.2647410788026469 0  -0.6958459635813904 -0.5838840913973433 0  0.4522629467729725 -0.586590978490136 0  -0.06798126544149206 0.9071469441830431 0  -0.2251516232954611 -0.8119800599910756 0  0.7531456777622132 0.06094452615252965 0  0.5941459501568455 -0.1872721025851182 0  -0.216657295148843 -0.6276165006205845 0  -0.228089505904504 -0.1874590519798677 0  -0.26831543489379 -0.09525095123827111 0  -0.1134800437664088 -0.1811377597871832 0  -0.3760665750606548 0.5157676543792213 0  -0.1992448771787426 0.6064188495583912 0  -0.5683961947462335 -0.7122395910944973 0  -0.3431915831704673 0.186560664
[...]
<PointData  Scalars="f_1724"> 
<DataArray  type="Float64"  Name="f_1724"  format="ascii">1.3900000000000001e+00  1.3900000000000001e+00  1.3900000000000001e+00  1.3900000000000001e+00  1.3900000000000001e+00  1.3900000000000001e+00  1.3900000000000001e+00  1.3900000000000001e+00  1.3900000000000001e+00  1.3900000000000003e+00  1.3899999999999999e+00  1.3900000000000001e+00  1.3900000000000001e+00  1.3900000000000001e+00  1.3900000000000003e+00  1.3900000000000001e+00  1.3900000000000001e+00  1.3900000000000001e+00  1.3900000000000001e+00  1.3900000000000001e+00  1.3900000000000001e+00  1.3900000000000001e+00  1.3900000000000001e+00  1.3900000000000001e+00  1.3900000000000001e+00  1.3900000000000001e+00  1.3900000000000001e+00  1.3900000000000001e+00  1.3900000000000001e+00  1.3900000000000001e+00  1.3900000000000001e+00  1.3900000000000001e+00  1.3900000000000001e+00  1.3900000000000001e+00  1.3900000000000001e+00  1.3900000000000001e+00  1.3900000000000001e+00  1.3900000000000001e+00  1.3900000000000001e+00  1.3900000000000001e+00  1.3900000000000001e+00  1.3900000000000001e+00  1.3900000000000001e+00  1.3900000000000001e+00  1.3900000000000001e+00  1.3900000000000001e+00  1.3900000000000001e+00  1.3900000000000001e+00  1.3900000000000001e+00  1.3900000000000001e+00  1.3900000000000001e+00  1.3900000000000001e+00  1.3900000000000001e+00  1.3900000000000001e+00  1.3900000000000001e+00  1.3900000000000001e+00  1.3900000000000001e+00  1.3900000000000001e+00  1.3900000000000001e+00  1.3900000000000001e+00  1.3900000000000001e+00  1.3900000000000001e+00  1.3900000000000001e+00  2.1407989503529343e+00  1.9716061368953948e+00  1.9717079294184350e+00  1.9716295515280833e+00  1.9716692556333544e+00  1.9717110790349139e+00  1.9382130754609164e+00  1.8565189223018985e+00  1.8432916840562283e+00  1.8432989555678161e+00  1.8433748097532641e+00  1.8109942714117655e+00  1.8109622241702967e+00  2.0806189857627237e+00  2.0851754237013944e+00  1.7620345320262885e+00  1.7557398976187415e+00  2.0396937059501035e+00  2.0844588459392268e+00  2.0397456771199796e+00  1.7546778336798312e+00  1.7545826653268906e+00  1.7546719654984122e+00  1.7546388262842052e+00  1.7546620794035042e+00  1.7547438501136536e+00  2.0965335612475053e+00  1.7174042307884054e+00  1.7779379030361029e+00  1.7241225099190827e+00  1.9928278236778723e+00  1.7718922352915094e+00  1.9816704750819694e+00  2.1132857008178916e+00  2.1161009849847887e+00  2.0928939714742723e+00  1.6610558403521059e+00  1.6776092697185296e+00  1.9177258879162886e+00  1.9258590461234908e+00  1.9864322667434311e+00  1.6630752552456320e+00  1.6630808235336909e+00  1.6450908408780938e+00  1.6631430639530327e+00  1.6524469201841563e+00  1.6428238319614250e+00  2.0724900037464113e+00  1.9466804090035117e+00  1.9122462871323800e+00  1.9122559468124796e+00  1.9121963799734085e+00  1.9122269772415865e+00  2.0463270993719989e+00  1.9913262423476012e+00  1.7033910529140257e+00  1.6397344384780841e+00  1.6396760507557735e+00  1.6554081705516470e+00  1.6493830283893014e+00  1.6423202308440692e+00  1.6392426774140079e+00  2.1206738368922884e+00  2.0656527498328043e+00  1.8374615067313278e+00  1.6173632482929710e+00  1.8606909341747597e+00  1.9056836009717717e+00  2.0628244448269397e+00  2.0420002561242567e+00  1.9016621098941855e+00  1.6045867927904220e+00  1.6026403420298299e+00  2.1261858426235856e+00  2.1248607064683016e+00  1.9036086915674970e+00  2.0578853304973070e+00  1.6096546111436574e+00  1.8740761845233662e+00  1.5964987524038059e+00  2.0151102362596665e+00  2.0196661175887947e+00  1.8468262090114560e+00  1.8423649442532648e+00  1.8423574573233998e+00  2.0077157106113148e+00  2.1288881274359039e+00  1.8110516827248466e+00  1.5984258621019032e+00  1.6042551311061388e+00  1.5975769154973112e+00  1.5975718785951747e+00  1.5835975836769833e+00  1.5993635073340544e+00  1.8759658432614095e+00  2.0344938399135497e+00  2.0078546021067334e+00  1.9556921979420210e+00  1.9557259904364752e+00  1.7940922446788492e+00  1.8301419272238109e+00  1.7941102320968312e+00  2.0338767154470512e+00  1.5929170644726778e+00  1.5956729264220557e+00  1.6288564247200588e+00  1.8045043700664414e+00  1.8183958640407571e+00  2.0198420724897299e+00  1.5653211903664461e+00  1.6135927178323690e+00  1.5803612419609663e+00  1.9432914289997323e+00  1.7750289813461746e+00  1.5862248772536911e+00  2.0015757743697056e+00  1.5774060284509819e+00  1.5742885594973581e+00  1.8389323438572347e+00  2.1318356011567965e+00  1.9070424708960096e+00  2.0271844831119172e+00  1.9846705285805091e+00  1.5812747242357739e+00  2.0725306123893072e+00  1.7544882648480251e+00  1.8012650696950208e+00  2.1174859834938413e+00  1.7229757481654417e+00  1.5866727950191770e+00  1.5480333658123835e+00  1.5546337174291753e+00  2.0937027005039388e+00  1.6298543918203132e+00  1.6298242093369053e+00  2.0931519536369922e+00  2.0572046933892061e+00  1.9122225091279734e+00  1.7265841303921712e+00  1.8109886224123766e+00  1.9071666260357676e+00  1.5398377907192042e+00  2.0158782324171178e+00  1.9019032566672023e+00  1.8678750053565565e+00  1.9065521336461111e+00  1.7705472851293822e+00  1.7243164374517903e+00  1.8710274159200826e+00  1.7369938070879387e+00  1.6530697736507773e+00  2.1337671496180124e+00  2.1117397963273539e+00  1.5310828086297612e+00  1.7670422202024341e+00  2.0916631133751244e+00  2.0390857547039083e+00  1.5326316030429501e+00  1.7520637102869536e+00  1.5306473219723742e+00  1.6256552485785511e+00  1.7348681870745706e+00  1.8727425456688145e+00  1.8336765200503571e+00  2.0837148418765152e+00  2.0877716272287890e+00  2.1111314314723670e+00  1.8584351767139091e+00  1.8584836944878065e+00  1.5284047233471540e+00  2.0396646490068888e+00  1.5447304225690504e+00  1.6580293106200288e+00  1.5416378990931030e+00  1.5547523382417783e+00  1.5415837813154063e+00  2.0922103837239243e+00  1.5221145482277820e+00  2.1107721592232958e+00  1.9402429596694237e+00  1.5366468939604512e+00  1.9793278804086911e+00  1.5452834171615615e+00  2.1349027313245843e+00  1.7142627499320180e+00  1.7690723521009459e+00  1.7109888700527245e+00  1.5384946292180026e+00  1.5238631514277745e+00  2.0031787495893862e+00  1.9781927932538752e+00  1.8566947394332896e+00  1.9970298961727451e+00  1.9787231451910099e+00  1.7077367967605821e+00  1.5285585397979733e+00  1.5370852918857623e+00  1.5129668412269641e+00  1.8989245183586441e+00  1.8461731162731669e+00  1.9472620330700223e+00  1.9743759675030321e+00  1.9114185062635383e+00  1.8907483360553985e+00  1.7022379822931637e+00  1.7500649965586188e+00  1.5188347684611880e+00  2.1329460894286059e+00  1.5148722686149791e+00  1.9079005626845333e+00  1.5278407589407441e+00  1.6764937888379621e+00  2.0717102763958546e+00  1.7609202782855242e+00  1.6799249973784824e+00  1.7250913985952678e+00  1.7574941572096616e+00  1.5427029230363929e+00  2.1357051576492045e+00  2.0460592030173173e+00  1.5070920051917178e+00  1.5330810099380008e+00  1.5084476619720886e+00  1.7474270018242148e+00  1.7608943735140539e+00  1.7474269350999065e+00  1.7608975511466034e+00  1.6655116614010228e+00  2.1149205093127064e+00  1.7346651992971751e+00  1.5314583319565889e+00  1.5103196412383453e+00  1.8933092382188461e+00  2.0030308825839898e+00  1.9333784694058282e+00  1.8736754615150801e+00  1.9945814438445317e+00  1.8724693517437432e+00  1.9558197127097077e+00  1.8736922080794234e+00  1.5114136466249453e+00  1.5116653902569543e+00  2.0585443138096706e+00  2.0574752712229802e+00  1.9988675892682974e+00  1.6490927948888652e+00  1.5079388392958166e+00  2.0935577718780061e+00  2.1043499117007167e+00  1.8070848350237980e+00  1.7203327978239829e+00  1.5024544610131327e+00  1.8799961601517750e+00  1.9705083394514886e+00  1.8846881958565833e+00  1.6516070104642258e+00  1.5234367758541820e+00  2.0600608286988531e+00  1.5199812287593419e+00  1.4999834768127012e+00  1.5287903242006178e+00  1.9302882713147864e+00  1.9766683563339134e+00  2.0278849496294398e+00  1.9661285407784912e+00  1.7878334828761959e+00  1.7618540649500023e+00  1.6603551524668116e+00  1.8445237869720719e+00  1.7212676727131084e+00  1.7916653236411586e+00  1.5090051184428286e+00  1.7161035827936566e+00  1.4952441605158673e+00  1.9102288177934210e+00  1.5221421918098468e+00  1.7161796789446058e+00  1.9277209156639794e+00  1.4941260508553669e+00  2.0239601727334584e+00  1.9113430168614360e+00  1.5258050288599354e+00  2.0430278299556823e+00  2.0235557766171453e+00  1.9677845087606196e+00  1.7943072348810054e+00  2.0632377377535835e+00  1.4902858429187429e+00  1.7284818808358766e+00  2.0913801197226243e+00  2.0193510402697301e+00  2.0847158929989447e+00  1.4908989280256868e+00  1.5217259125604738e+00  1.8322552811581923e+00  1.6316270280463023e+00  1.7067912561445124e+00  1.5030811198434018e+00  1.8347352415201239e+00  2.1091864321848650e+00  1.8610404789510955e+00  2.0461301737180957e+00  2.0125431412556880e+00  2.0858381538115918e+00  1.8412727238200564e+00  1.7496701126340248e+00  1.9631730394761930e+00  1.9396703236787858e+00  1.5103753458041278e+00  1.9122419415665062e+00  1.8424851119795940e+00  1.8437041885871710e+00  2.0566602470200568e+00  1.9353961138736793e+00  2.1132589056979025e+00  2.0710738182703703e+00  1.7949600618496395e+00  1.9956591269804265e+00  1.9661081060677499e+00  1.6551846397983805e+00  1.8630514102564042e+00  1.8406623060757934e+00  1.9504005646063323e+00  1.7905407580343431e+00  1.7820199788924918e+00  1.5003013146019355e+00  1.8085137331143648e+00  2.0283985404372693e+00  1.4998191530445562e+00  1.4983073141823291e+00  1.6571907333686566e+00  2.1120928677550843e+00  2.0527369555717980e+00  1.6344044887808937e+00  1.8333214650880034e+00  1.9364271632826455e+00  1.8178348834696343e+00  1.8146418238597342e+00  1.6941385552619135e+00  1.5150923255711173e+00  1.6893353891314606e+00  2.0367092527967192e+00  1.4777227986297909e+00  1.6655671562077867e+00  1.6585815913773974e+00  1.5069663824647095e+00  1.5402670985718292e+00  2.1373376201307597e+00  2.0536846228197727e+00  1.9969645709894981e+00  2.0419290950960360e+00  1.8449201904651866e+00  1.9415169392472080e+00  1.8192823332986106e+00  1.9495420882989414e+00  1.6908581112702732e+00  2.0745799595456194e+00  1.7443038555402324e+00  2.0669295501098977e+00  1.4967180520860015e+00  1.4939202638457207e+00  1.4736486108547513e+00  1.6630648403832105e+00  2.1187850588551997e+00  1.7166638368173657e+00  1.6865595315959989e+00  1.6508134973118815e+00  1.6622533544983891e+00  1.7384874395561296e+00  1.4802971410207029e+00  1.4941385950810320e+00  1.8901856082295421e+00  1.8875829376534137e+00  1.7049510581680645e+00  1.6448349600487946e+00  1.9274958013431041e+00  1.6318197268518730e+00  1.6789102982665920e+00  1.6800548275189378e+00  2.1227874698992633e+00  2.1378292750101098e+00  2.0675733330730037e+00  1.6313059637754792e+00  1.7330362556591272e+00  1.3875153876827009e+00  1.4962279866633332e+00  1.6206485448396890e+00  1.4931806754326331e+00  1.6016419981096086e+00  1.4921307703583917e+00  1.5033467191847480e+00  1.9062646575119651e+00  1.7566683580468523e+00  1.8440032946133524e+00  1.5744860142610928e+00  2.0155185492362646e+00  1.7129915956806077e+00  1.7205915985858768e+00  1.9777872318048324e+00  1.3875153876827009e+00  1.8291980549147056e+00  1.7995427774813264e+00  2.1116483188447721e+00  1.6515358585551028e+00  1.9261325935002875e+00  1.7840856957469773e+00  1.9045641741119355e+00  2.0316338393499032e+00  1.9649226065007162e+00  2.0036300417072512e+00  1.9297216533241961e+00  1.9608221987506891e+00  2.0028707662356520e+00  1.9574568489459756e+00  2.1102621727044539e+00  1.3875153876827009e+00  1.4782740712559688e+00  1.9083049501555742e+00  1.6678553413716217e+00  1.6734597774884772e+00  1.3875153876827009e+00  1.4934165079080419e+00  2.0419329092158955e+00  2.0148652993918996e+00  2.0513916781795678e+00  2.0264644133240099e+00  2.1347282979253026e+00  1.6213482354427966e+00  1.3875153876827009e+00  1.4976528758714542e+00  1.6134138699833844e+00  1.9602527034149084e+00  1.4860946611277757e+00  1.9558749043441441e+00  1.7782998320292540e+00  1.6065248510546541e+00  2.0310861953227892e+00  1.5775061477636736e+00  1.9642339114647864e+00  1.8135187188178008e+00  1.4771512367090087e+00  2.0892451051025782e+00  1.7006965203434037e+00  1.9202015553819691e+00  2.0700737520687276e+00  1.9610506746486751e+00  1.9294172058788497e+00  1.6221073112063420e+00  1.7621052869103297e+00  1.8352236503392088e+00  2.0017878835657759e+00  1.8990439718318504e+00  1.6429842695690919e+00  1.6023159482468567e+00  1.8744588794579056e+00  1.9648282577722669e+00  1.8033831695407956e+00  2.0940100063018576e+00  1.6272280188689681e+00  1.8231980672188277e+00  1.6061477263644071e+00  1.3875153876827009e+00  1.8735462834304439e+00  1.3875153876827007e+00  1.7058521901465287e+00  1.7699680868629077e+00  1.9832895302816926e+00  1.3875153876827009e+00  2.0045265217129620e+00  1.4861469242672050e+00  1.6515484826079450e+00  1.6642185815140631e+00  2.0478667782659890e+00  1.7252742343498251e+00  1.8170113756245747e+00  1.9568078845207588e+00  2.1028647864170269e+00  1.7794773432019850e+00  1.5895867213202530e+00  1.5953200987257656e+00  1.4941199389194808e+00  1.7375247040265929e+00  1.8530372767094965e+00  2.0072112864777201e+00  2.0695579626703404e+00  1.4890709750249871e+00  2.0931756611528094e+00  1.5963568228702789e+00  1.3875153876827009e+00  1.7826473606847877e+00  1.6118391527570179e+00  1.4834353351846263e+00  1.8072738695770811e+00  1.8596560896231884e+00  2.0737140577767814e+00  1.7073629691169083e+00  1.7134335719940883e+00  1.6804788962177486e+00  2.1229665489393277e+00  2.1257328218579974e+00  1.6830403246362293e+00  1.4859409720833958e+00  1.8180796622347568e+00  1.5808197680313265e+00  1.8958723244668847e+00  1.9600000893751688e+00  1.5867529136984257e+00  2.0562094104780240e+00  2.0006990525451296e+00  2.0044824172597440e+00  1.7937817183418494e+00  1.7085920596211090e+00  1.3875153876827007e+00  1.8933084624025873e+00  2.1382651693787111e+00  2.1274548442604719e+00  1.8243419583225797e+00  1.9267201580903981e+00  1.4677433956451438e+00  1.8643111681778959e+00  2.0954980377002737e+00  1.7805986555069386e+00  1.7367399361505751e+00  1.8917804688914091e+00  1.5564127744000928e+00  1.3875153876827009e+00  1.4843655905710462e+00  1.5732215679735666e+00  2.1055131708217583e+00  1.8213607727615848e+00  1.5849170527695646e+00  2.0920307738896065e+00  2.1257654781963513e+00  2.1000414150381008e+00  1.9381451946655952e+00  1.3875153876827009e+00  1.9100856825296484e+00  2.0084663406753362e+00  1.6402028985816368e+00  1.5852049258066103e+00  1.9855449852493132e+00  1.9947357533597680e+00  1.7150998385345984e+00  1.6514462138445598e+00  2.0868917453647780e+00  1.7840116081711095e+00  1.5108157655345120e+00  1.9252724302840603e+00  1.9462860328515896e+00  1.9284461779353250e+00  1.8715301236366384e+00  2.0161290473653457e+00  2.0267953316533860e+00  1.7214297618862573e+00  1.9966575424490662e+00  1.9450381051318764e+00  2.0193269611648086e+00  2.0008948666007305e+00  2.0709752614128170e+00  1.4892288329412529e+00  1.7498558012011316e+00  1.9758866110254971e+00  1.7578288763620620e+00  1.9986792559850284e+00  1.7911595984561834e+00  1.8608031694330165e+00  1.8282068492943089e+00  1.5001159746388739e+00  1.9442923365588338e+00  1.5225134451572386e+00  2.1296850832475318e+00  1.4695791064987012e+00  1.8017102144952992e+00  1.4844155153459107e+00  1.4704693031202416e+00  1.7032490143347643e+00  1.7241969540414690e+00  1.9190488473561460e+00  1.3875153876827007e+00  1.4809388798281544e+00  1.8455579297337348e+00  1.9948137522657854e+00  2.0421940007519415e+00  1.3875153876827009e+00  1.9534332731813486e+00  1.7084430904442280e+00  1.6790585239866429e+00  1.7083487684996974e+00  1.6790712134059904e+00  1.4849997483550363e+00  1.4778426290964835e+00  1.5684769705204233e+00  1.5798261240035105e+00  1.4717284890734759e+00  1.4840206998920775e+00  1.8664188956673207e+00  1.6941389510530740e+00  1.7126902312449162e+00  1.8539875206348588e+00  2.0715732395928153e+00  2.0835193019309211e+00  1.8666367151880552e+00  2.0696352476636806e+00  1.4877033308657086e+00  2.1225654238641680e+00  2.1272039706534525e+00  2.0358330883761426e+00  2.1037014648524086e+00  1.7778362438547137e+00  1.8619201158530430e+00  1.6125326862151024e+00  1.5863791791954438e+00  2.1085553514640325e+00  1.5991786345319670e+00  1.6099190495388478e+00  1.5661559789703530e+00  1.3875153876827007e+00  1.4747072563887629e+00  1.5681740780565241e+00  1.6179126141491693e+00  1.9149252920767397e+00  1.8746890200282096e+00  1.7851624252477354e+00  1.6590205119120967e+00  2.0343101682229725e+00  1.8642809588984162e+00  1.7629266824840484e+00  2.1125930662276975e+00  1.8154680099331464e+00  1.8479704613490495e+00  1.8974839234661829e+00  1.4789450418190619e+00  1.6083514947803932e+00  1.3875153876827011e+00  1.4740399243754980e+00  2.0949430501503801e+00  1.7125271640756916e+00  1.4733230029653468e+00  1.5700218291290811e+00  2.0640580414144676e+00  1.8958643465222220e+00  1.8728551942961098e+00  1.9298557579914359e+00  1.6141355723329969e+00  1.5787526639514020e+00  1.7797019133671999e+00  1.7515015811767702e+00  1.7864010834312931e+00  1.9368654223677235e+00  1.7527219613252367e+00  1.5840808743245702e+00  1.4719092499596258e+00  1.6046269450536306e+00  2.1290460171071879e+00  1.6090396746217974e+00  2.0731802108503916e+00  2.1225847769364674e+00  1.6727929592138955e+00  1.7614241504422665e+00  1.7070893402338461e+00  1.9927783976478426e+00  2.0841579856167334e+00  2.1197533401351247e+00  1.8729847496600054e+00  1.9457207466003150e+00  2.1087000806746987e+00  1.8164054051787106e+00  2.0128788997904015e+00  2.1007735037261575e+00  1.4770349224489647e+00  2.0852023535945459e+00  1.8086886697998386e+00  1.8246212286770203e+00  1.8979297382692575e+00  1.9087682262588896e+00  1.7759518061896036e+00  1.7143098354222812e+00  1.6328327681627408e+00  1.4640949486078052e+00  1.6653509513226989e+00  1.5753649895240942e+00  1.4745633960107722e+00  1.3875153876827007e+00  1.9089208820901873e+00  1.9729519389614534e+00  1.3875153876827009e+00  2.0130891275129588e+00  1.9639866427956663e+00  2.0280760807666387e+00  1.9836499911141550e+00  1.8305186354474638e+00  2.1322657202559747e+00  1.4739491521499342e+00  1.5785950473937786e+00  1.9384373845158884e+00  1.5917194710490263e+00  1.5779635291505580e+00  1.8042133569792340e+00  1.4646957740843667e+00  1.5726906181547728e+00  1.4780579467634940e+00  1.4677620973329126e+00  2.0472287140208416e+00  2.1390314012733729e+00  1.6367124052128710e+00  2.0553892383190053e+00  1.6107778836731781e+00  1.4806058316311244e+00  1.3875153876827009e+00  1.3875153876827007e+00  1.8832179821411688e+00  1.8642358937708887e+00  1.8822298997536615e+00  2.0802176319039112e+00  2.0597618199859085e+00  1.6381169403986675e+00  1.9051028740516898e+00  1.3875153876827009e+00  1.4756644174599989e+00  1.3875153876827009e+00  1.5900477512097626e+00  2.0616701906937687e+00  2.0369940910220050e+00  1.8598418931184766e+00  1.9862187040690029e+00  1.8279596513288783e+00  1.8844618374051556e+00  1.8976570716396046e+00  2.0420083494398842e+00  1.4716535550757019e+00  2.0350414505611725e+00  1.4663252471992003e+00  1.9348636694710917e+00  1.5744069776663958e+00  1.6135954170088227e+00  2.0123715876712267e+00  1.8342910557233953e+00  1.8753644463549031e+00  1.8633098703301978e+00  1.8998104999318741e+00  1.3875153876827009e+00  2.0282193482736806e+00  1.4665127637100701e+00  1.5964223119125971e+00  1.7049543491215406e+00  1.3875153876827009e+00  1.3875153876827011e+00  1.4610090106614562e+00  1.5618440152390496e+00  1.4741941214296648e+00  1.3875153876827009e+00  1.4689989422859653e+00  1.4712433026669833e+00  2.1099074839553333e+00  1.3875153876827009e+00  2.0724933918369053e+00  1.5633347995623876e+00  1.5600551389681818e+00  1.9706722390791189e+00  1.9374491824662448e+00  1.9671277360028545e+00  1.7943803803952043e+00  1.6441389883113016e+00  1.7664451421671585e+00  1.7958561819874086e+00  1.9964278809623965e+00  1.8711302956857