<?xml version="1.0"?>
<VTKFile type="UnstructuredGrid"  version="0.1"  >
<UnstructuredGrid>
<Piece  NumberOfPoints="8165" NumberOfCells="16057">
<Points>
<DataArray  type="Float64"  NumberOfComponents="3"  format="ascii">-0.9987569212189223 0.04984588566069748 0  -0.9987569212189223 -0.04984588566069723 0  -0.9888308262251285 -0.1490422661761745 0  -0.969077286229078 -0.2467573976902936 0  -0.9396926207859084 -0.3420201433256687 0  -0.9009688679024191 -0.433883739117558 0  -0.8532908816321557 -0.5214352033794979 0  -0.7971325072229226 -0.6038044103254772 0  -0.7330518718298266 -0.6801727377709191 0  -0.6616858375968597 -0.749781202967734 0  -0.5837436722347905 -0.8119380057158559 0  -0.4999999999999996 -0.8660254037844388 0  -0.4112871031306116 -0.9115058523116731 0  -0.318486650251685 -0.9479273461671316 0  -0.2225209339563146 -0.9749279121818236 0  -0.1243437046474858 -0.992239206600172 0  -0.02493069173807316 -0.9996891820008162 0  0.07473009358642436 -0.9972037971811801 0  0.17364817766693 -0.9848077530122081 0  0.2708404681430051 -0.962624246950012 0  0.3653410243663945 -0.9308737486442045 0  0.4562106573531629 -0.8898718088114687 0  0.5425462638657597 -0.8400259231507713 0  0.6234898018587334 -0.7818314824680299 0  0.698236818086073 -0.7158668492597183 0  0.7660444431189778 -0.6427876096865396 0  0.8262387743159945 -0.5633200580636227 0  0.8782215733702283 -0.4782539786213186 0  0.9214762118704076 -0.3884347962746947 0  0.9555728057861406 -0.2947551744109047 0  0.9801724878485438 -0.1981461431993977 0  0.9950307753654013 -0.09956784659581729 0  1 0 0  0.9950307753654014 0.09956784659581666 0  0.9801724878485438 0.1981461431993976 0  0.9555728057861407 0.2947551744109042 0  0.9214762118704076 0.3884347962746947 0  0.8782215733702285 0.4782539786213182 0  0.8262387743159949 0.5633200580636221 0  0.766044443118978 0.6427876096865393 0  0.6982368180860729 0.7158668492597184 0  0.6234898018587336 0.7818314824680298 0  0.5425462638657594 0.8400259231507714 0  0.4562106573531631 0.8898718088114685 0  0.365341024366395 0.9308737486442042 0  0.2708404681430052 0.962624246950012 0  0.1736481776669304 0.984807753012208 0  0.07473009358642439 0.9972037971811801 0  -0.02493069173807291 0.9996891820008162 0  -0.1243437046474852 0.9922392066001721 0  -0.2225209339563143 0.9749279121818236 0  -0.3184866502516843 0.9479273461671318 0  -0.4112871031306114 0.9115058523116732 0  -0.5000000000000002 0.8660254037844385 0  -0.5837436722347896 0.8119380057158566 0  -0.6616858375968592 0.7497812029677344 0  -0.7330518718298263 0.6801727377709194 0  -0.7971325072229225 0.6038044103254774 0  -0.8532908816321556 0.5214352033794981 0  -0.900968867902419 0.4338837391175582 0  -0.9396926207859083 0.3420201433256689 0  -0.9690772862290778 0.2467573976902938 0  -0.9888308262251285 0.1490422661761747 0  0 -3.33066907387547e-16 0  0.2922351073784631 0.4064742824134499 0  -0.2283892344877995 0.445489683178082 0  -0.5006223129745928 1.249000902703301e-16 0  0.4851417124831425 -0.1235322591753062 0  -0.2283892344877995 -0.4454896831780823 0  0.2244381293544702 -0.4974059892257727 0  0.6017400542999141 0.2190154685308969 0  -0.5581446696297816 -0.3410751076665679 0  0.04888157636984874 0.6522793058172992 0  -0.5581446696297816 0.341075107666568 0  0.5318003682503499 -0.4338991867093802 0  -0.02655531792237059 -0.6858388666358241 0  0.2846822903539273 0.1036158799115578 0  0.2057127456600814 -0.2065170392348358 0  0.5499950705631735 0.4828159805817372 0  0.7365712010015821 -0.03676074036240858 0  -0.3332123644358574 -0.2036218372401125 0  -0.2503111564872963 0.1529619636172051 0  0.02918230080088918 0.3894107416776539 0  0.3119038197247055 0.6693125881472082 0  -0.4533085568472715 0.5829019520470146 0  -0.2086642468434529 0.7083237716612585 0  -0.4533085568472716 -0.5829019520470144 0  -0.7255122091309201 -0.1374604227155882 0  -0.7255122091309201 0.1374604227155883 0  -0.05009008488438581 -0.2556093177500643 0  0.3851790873862939 -0.6671497493660733 0  0.6709552008695683 -0.254288853195751 0  -0.2603565207201746 -0.7190461267637986 0  -0.01274908188504958 -0.4693251432427898 0  0.180383544466418 -0.7001037260965679 0  0.3847163576179377 -0.2973202411100294 0  -0.04995432007195971 0.1995423851608914 0  -0.1678190342621316 -0.0998261742388182 0  0.1403205714878223 0.2316624653136229 0  0.7349932089154046 0.3539540744095583 0  0.7879319621210741 0.1537397135554779 0  0.5698193606007648 0.03876274873020472 0  0.4558478162384035 0.3273736178084163 0  -0.4419539887971066 0.1852825496193718 0  -0.7464085988633791 -0.3252307397060302 0  -0.7464085988633791 0.3252307397060303 0  0.02064469536321903 0.827826152484757 0  -0.6299332241648122 0.5158342404302462 0  -0.6649689944704764 -0.4839644683910337 0  0.70800971084343 -0.4326557279765403 0  -0.3223706017906134 -0.01040698776897026 0  -0.5054246806996193 -0.1745782100334494 0  -0.4005901524784139 -0.416410058674076 0  -0.1042571859310078 0.5683311063186439 0  -0.4005901524784139 0.4164100586740762 0  0.1877980753282089 0.5464445901741976 0  0.1206822009066526 -0.3580378865832485 0  0.4460042554300219 0.1536417414647964 0  0.1738116160219865 0.7624188124093614 0  -0.8321051542296078 6.938893903907228e-17 0  -0.3796152393980441 0.7404669187156475 0  0.4930547478800816 0.6553511379173387 0  0.5542774023972679 -0.610736590905896 0  0.06765100167578174 -0.8273503122395667 0  -0.1263627236672069 -0.8227899655417861 0  0.1732568394682733 -0.03313223201635654 0  0.3244981183472287 -0.0945514879573747 0  0.3964818767539355 0.5278166619520006 0  0.8225174138930775 -0.2094386686091706 0  0.3862762456383678 -0.5051310802049933 0  -0.1330531929054866 -0.5703508657222929 0  -0.177647535364107 0.2946018482597728 0  0.2899951183081392 0.2550067652537422 0  0.08441079514704673 -0.5842176964322349 0  -0.1490115292621843 0.8450863768180583 0  0.2737504708168863 -0.814776874033456 0  -0.142353501387633 0.04833782824577596 0  0.06123953108016653 -0.1447132819643286 0  0.5259110046002531 -0.2630012123273205 0  -0.2028836910358441 -0.2907872567933579 0  0.6961680963734469 0.4954410198387236 0  -0.5896348602892731 0.1963655996997491 0  -0.4687501505461277 -0.7257671910482482 0  -0.3280940097505531 0.2841706514959641 0  0.4262046142439533 0.009495858005196894 0  -0.3034808298607995 -0.575360661977006 0  -0.655077525044371 5.551115123125783e-17 0  -0.2988533483177751 0.5829350221229744 0  0.2606280324088774 -0.3621577007324048 0  0.06109885742534778 0.1213198421233271 0  0.5883360859796991 0.3533614497113013 0  0.3043653793591053 0.8070919162104671 0  -0.5977628423620102 -0.6160630342157603 0  -0.5768580796341715 0.6421662051486873 0  -0.8346144062426474 -0.2203666761707024 0  -0.8558623315149202 0.173016302948436 0  0.8612845745432718 0.03178923580507788 0  0.6132723301615656 -0.08714674393221392 0  0.1628110939985944 0.3655319136460566 0  -0.09567032507741235 0.4355151996776715 0  0.05746843722344426 0.5194633991763268 0  -0.436019945709395 -0.2881300360956253 0  -0.07596061144871569 0.6983647226519493 0  -0.6275255320060281 -0.2275110374504959 0  -0.5226873339000571 -0.469341295132707 0  -0.1125799974105092 -0.3851292258287221 0  0.619011024823678 0.6063877701182406 0  -0.2763102364367199 0.8192202812544818 0  0.7745348125424459 -0.3258032396315157 0  -0.518060795045081 0.4596654131466001 0  0.6694847456509949 0.1140659043624926 0  -0.4164279919677704 -0.08967120904698817 0  -0.3237023997545292 -0.8247802633914654 0  0.8468194484731224 -0.0896151494438422 0  0.4258293249936974 0.7649442768810276 0  -0.4452381011188446 0.304057250497095 0  -0.1429733645462529 -0.705840003340848 0  0.6708719183416081 -0.5559925608496961 0  -0.3198578181913611 -0.3250798040022018 0  0.4976994035910101 -0.722786655132186 0  0.3915320294649418 -0.7878115305337891 0  0.3013332399688708 -0.585568912488973 0  -0.05021176719619284 -0.1065627974183157 0  -0.5778499190094819 -0.08523074965409963 0  -0.4069729011762343 0.07227633527667994 0  0.1017761104609 -0.4710042480313572 0  0.8313172614604811 0.2723171946851911 0  -0.06237900155959543 0.3161471027625475 0  0.7228946573831219 -0.1512956814359499 0  0.6036725534446189 -0.345871914207299 0  0.1705451400955359 0.08284736515785829 0  -0.3661633096233823 -0.6724877309579722 0  -0.7432283975853058 0.454177419441099 0  -0.7886115584549602 -0.4294549654143447 0  0.210520553651675 0.8682430176792441 0  0.1024345016269031 -0.2481784681422972 0  -0.8322817485593992 -0.1101956133222516 0  -0.477755773363484 0.6903516518401452 0  0.03638745749539424 0.2677067415209754 0  0.005824306220235123 -0.3559598780800155 0  -0.02393057554055716 -0.5773091896046807 0  -0.656853418329663 0.3875346040967115 0  0.2023789243848113 0.6558288354998336 0  -0.5778499190094819 0.08335021638867035 0  0.8934476994401067 0.1341710538308732 0  0.3910989747205646 -0.1850985530637385 0  0.2900570811000597 0.5137964995259913 0  0.452764781948902 0.4354733387228008 0  0.4254647729341454 -0.4009256457985336 0  0.07502847893507417 -0.7203260015172291 0  0.2868290874409293 -0.7087819889995405 0  0.1884682971157424 -0.5957245682636509 0  0.7140991219034133 0.2413235030500445 0  0.1696702818122023 -0.8041727389113376 0  -0.03976182458011464 0.09606993450337703 0  -0.144895576760654 0.1537255187907586 0  -0.0679575666902707 -0.9068307063252722 0  -0.6878282916538929 0.2367020581784782 0  0.2741614604364078 -0.001581553459900201 0  0.2887101103557479 -0.2647410788026469 0  -0.6958459635813904 -0.5838840913973433 0  0.4522629467729725 -0.586590978490136 0  -0.06798126544149206 0.9071469441830431 0  -0.2251516232954611 -0.8119800599910756 0  0.7531456777622132 0.06094452615252965 0  0.5941459501568455 -0.1872721025851182 0  -0.216657295148843 -0.6276165006205845 0  -0.228089505904504 -0.1874590519798677 0  -0.26831543489379 -0.09525095123827111 0  -0.1134800437664088 -0.1811377597871832 0  -0.3760665750606548 0.5157676543792213 0  -0.1992448771787426 0.6064188495583912 0  -0.5683961947462335 -0.7122395910944973 0  -0.3431915831704673 0.186560664
[...]
<PointData  Scalars="f_2252"> 
<DataArray  type="Float64"  Name="f_2252"  format="ascii">1.5100000000000002e+00  1.5100000000000002e+00  1.5100000000000002e+00  1.5100000000000002e+00  1.5100000000000002e+00  1.5100000000000002e+00  1.5100000000000002e+00  1.5100000000000002e+00  1.5100000000000002e+00  1.5100000000000005e+00  1.5100000000000000e+00  1.5100000000000002e+00  1.5100000000000002e+00  1.5100000000000002e+00  1.5100000000000005e+00  1.5100000000000002e+00  1.5100000000000002e+00  1.5100000000000002e+00  1.5100000000000002e+00  1.5100000000000002e+00  1.5100000000000002e+00  1.5100000000000002e+00  1.5100000000000002e+00  1.5100000000000002e+00  1.5100000000000002e+00  1.5100000000000002e+00  1.5100000000000002e+00  1.5100000000000002e+00  1.5100000000000002e+00  1.5100000000000002e+00  1.5100000000000002e+00  1.5100000000000002e+00  1.5100000000000002e+00  1.5100000000000002e+00  1.5100000000000002e+00  1.5100000000000002e+00  1.5100000000000002e+00  1.5100000000000002e+00  1.5100000000000002e+00  1.5100000000000002e+00  1.5100000000000002e+00  1.5100000000000002e+00  1.5100000000000002e+00  1.5100000000000002e+00  1.5100000000000002e+00  1.5100000000000002e+00  1.5100000000000002e+00  1.5100000000000002e+00  1.5100000000000002e+00  1.5100000000000002e+00  1.5100000000000002e+00  1.5100000000000002e+00  1.5100000000000002e+00  1.5100000000000002e+00  1.5100000000000002e+00  1.5100000000000002e+00  1.5100000000000002e+00  1.5100000000000002e+00  1.5100000000000002e+00  1.5100000000000002e+00  1.5100000000000002e+00  1.5100000000000002e+00  1.5100000000000002e+00  2.3816523449632485e+00  2.1724163451449656e+00  2.1725359772267057e+00  2.1724444690912561e+00  2.1724907992220244e+00  2.1725399020940248e+00  2.1323175518838293e+00  2.0355916903852429e+00  2.0201028235434202e+00  2.0201122322684544e+00  2.0201897412588692e+00  1.9824505296614212e+00  1.9824147523939692e+00  2.3059354290732150e+00  2.3116129510075356e+00  1.9258442704521670e+00  1.9185987836828580e+00  2.2553019937306344e+00  2.3107187322312348e+00  2.2553624853389871e+00  1.9173758488126778e+00  1.9172775823026711e+00  1.9173732330618065e+00  1.9173345844567979e+00  1.9173661062210681e+00  1.9174475327889979e+00  2.3258057038427458e+00  1.8746959351275863e+00  1.9441695254062434e+00  1.8823657494091370e+00  2.1980802764848502e+00  1.9371974639039156e+00  2.1845681944944038e+00  2.3468379514809921e+00  2.3503839745720536e+00  2.3212512849543980e+00  1.8106733245293769e+00  1.8294203345646056e+00  2.1078906428113822e+00  2.1175725144409787e+00  2.1903264549570096e+00  1.8129641360321409e+00  1.8129666485167308e+00  1.7926450214890137e+00  1.8130334423316570e+00  1.8009512455994072e+00  1.7900921524176892e+00  2.2958238253118384e+00  2.1424512227616339e+00  2.1013743742317010e+00  2.1013831272549237e+00  2.1013166060569501e+00  2.1013517051659365e+00  2.2634643507356214e+00  2.1962602927252912e+00  1.8587195013198681e+00  1.7866168210718745e+00  1.7865507102488043e+00  1.8043002047854171e+00  1.7974950913877368e+00  1.7895298805185826e+00  1.7860626778808206e+00  2.3561524478752025e+00  2.2873405544955454e+00  2.0132810879920413e+00  1.7614487825565950e+00  2.0404928762658421e+00  2.0935814118905633e+00  2.2838386222459865e+00  2.2581376333013941e+00  2.0888188990093801e+00  1.7471186266516776e+00  1.7449356609724538e+00  2.3631176849832554e+00  2.3614422761842389e+00  2.0911243783575477e+00  2.2777265553605281e+00  1.7527930197318120e+00  2.0562270710053330e+00  1.7380561782859847e+00  2.2251867645565571e+00  2.2307534813545575e+00  2.0242365755171945e+00  2.0190159062708362e+00  2.0190083093840960e+00  2.2161710277745792e+00  2.3665379500638193e+00  1.9825171748230237e+00  1.7402151769978635e+00  1.7467416113406655e+00  1.7392623616927783e+00  1.7392572170237388e+00  1.7236305904890237e+00  1.7412687609467545e+00  2.0584517482418008e+00  2.2489140047890617e+00  2.2163432403850538e+00  2.1532672290920587e+00  2.1533063679471218e+00  1.9628487384756326e+00  2.0047373414106699e+00  1.9628652256359356e+00  2.2481571218541938e+00  1.7340499033956285e+00  1.7371354813731841e+00  1.7743635509296700e+00  1.9749157374689761e+00  1.9910582821215990e+00  2.2309690738972794e+00  1.7032406528544606e+00  1.7572175278275108e+00  1.7200184202550481e+00  2.1383930915538003e+00  1.9408096866563527e+00  1.7265623253025111e+00  2.2086973069618119e+00  1.7167176577247447e+00  1.7132361169727592e+00  2.0150072469056948e+00  2.3702721266677296e+00  2.0951895480757043e+00  2.2399484845305868e+00  2.1881942836570518e+00  1.7210421765681605e+00  2.2958764525006266e+00  1.9171626508751733e+00  1.9711533456389818e+00  2.3521299972575949e+00  1.8810546603655494e+00  1.7270650227561983e+00  1.6839952739513313e+00  1.6913384396720734e+00  2.3222630201125338e+00  1.7754867230354709e+00  1.7754521191600754e+00  2.3215737313385332e+00  2.2768850409045878e+00  2.1013482950257383e+00  1.8851829540862928e+00  1.9824441551656806e+00  2.0953434290945823e+00  1.6748994969914752e+00  2.2261266684034124e+00  2.0890994865761088e+00  2.0489323559379784e+00  2.0946111043981932e+00  1.9356464086068952e+00  1.8825840275732597e+00  2.0526389351118617e+00  1.8970937232824925e+00  1.8016601136606019e+00  2.3727214051969070e+00  2.3448919297271544e+00  1.6651877058501574e+00  1.9316014412915619e+00  2.3197135459464211e+00  2.2545519971941688e+00  1.6668993553104658e+00  1.9143752334383675e+00  1.6646995125257997e+00  1.7707726630753293e+00  1.8946612135380236e+00  2.0546537070392104e+00  2.0088608252036968e+00  2.3097916202718891e+00  2.3148523689868861e+00  2.3441258964957532e+00  2.0378410050564639e+00  2.0378968375043232e+00  1.6622090632847495e+00  2.2552629129328245e+00  1.6803268857997744e+00  1.8072636616347872e+00  1.6768872812749340e+00  1.6914713803791588e+00  1.6768321762803480e+00  2.3203973958944588e+00  1.6552397905994092e+00  2.3436741144438753e+00  2.1347474195113949e+00  1.6713587564876000e+00  2.1817319463717464e+00  1.6809430692871097e+00  2.3741619110234269e+00  1.8711015416543229e+00  1.9339474944859811e+00  1.8673717679049320e+00  1.6734024068607278e+00  1.6571733700866240e+00  2.2106515844557482e+00  2.1803644058158991e+00  2.0357952161256083e+00  2.2031819316526162e+00  2.1810030626131116e+00  1.8636632930426424e+00  1.6623874582650480e+00  1.6718417449951721e+00  1.6451174294542226e+00  2.0855683405682903e+00  2.0234745613458873e+00  2.1431529764283153e+00  2.1757580569083315e+00  2.1003890580353470e+00  2.0758940289767089e+00  1.8573971669550011e+00  1.9120796873749979e+00  1.6516112047857947e+00  2.3716798005523030e+00  1.6472244906753875e+00  2.0962122037113264e+00  1.6615854976386379e+00  1.8281582708877893e+00  2.2948550159873382e+00  1.9245600926600195e+00  1.8320488564847479e+00  1.8834722920416180e+00  1.9206140423869882e+00  1.6780759740237807e+00  2.3751803271340424e+00  2.2631342962280216e+00  1.6386239816835728e+00  1.6673894808178336e+00  1.6401132994740615e+00  1.9090570131921893e+00  1.9245268775867634e+00  1.9090563621259116e+00  1.9245301624731526e+00  1.8157200358353329e+00  2.3488963578398363e+00  1.8944229474310552e+00  1.6655926291263232e+00  1.6421870215573322e+00  2.0789269840337630e+00  2.2104703853543026e+00  2.1265447224532505e+00  2.0557519081467523e+00  2.2002047841152681e+00  2.0543354776694289e+00  2.1534155965628621e+00  2.0557728952233787e+00  1.6434028177641460e+00  1.6436744112695265e+00  2.2785437703794682e+00  2.2772218273139284e+00  2.2054108640195902e+00  1.7971676201624738e+00  1.6395543196313744e+00  2.3220801674983726e+00  2.3356030663755414e+00  1.9779089981578817e+00  1.8780398849882716e+00  1.6334989455608280e+00  2.0632006961602047e+00  2.1710907371796870e+00  2.0687385349222813e+00  1.8000067867261860e+00  1.6567066950771105e+00  2.2804167080085125e+00  1.6528815699751129e+00  1.6307710233746655e+00  1.6626350880981675e+00  2.1228552101649956e+00  2.1785245064173013e+00  2.2408096519628287e+00  2.1658145543287506e+00  1.9555942247527618e+00  1.9256309915656979e+00  1.8098877412147441e+00  2.0215359082465505e+00  1.8790987700194943e+00  1.9600293050031601e+00  1.6407386259219574e+00  1.8732018925099112e+00  1.6255323817552503e+00  2.0989757889268423e+00  1.6552750629424058e+00  1.8732914009761807e+00  2.1197879605558323e+00  1.6243034348997931e+00  2.2360051042572442e+00  2.1002988619133776e+00  1.6593353318057202e+00  2.2594002513154141e+00  2.2355083081633298e+00  2.1678091810154165e+00  1.9630939892721166e+00  2.2843492192639800e+00  1.6200719677873436e+00  1.8873496802894734e+00  2.3193583607537280e+00  2.2303664416743088e+00  2.3110385776376083e+00  1.6207445541175973e+00  1.6548060097706496e+00  2.0072022924512183e+00  1.7774841219037534e+00  1.8625861703960929e+00  1.6341825779326986e+00  2.0101013681689288e+00  2.3416795890384443e+00  2.0409053712514642e+00  2.2632223608600106e+00  2.2220574757474325e+00  2.3124393003275374e+00  2.0177349888290257e+00  1.9116296286049943e+00  2.1622549877149742e+00  2.1340619855992125e+00  1.6422440225285684e+00  2.1013635184941433e+00  2.0191523000660285e+00  2.0205843458299086e+00  2.2762122589653830e+00  2.1289537586460079e+00  2.3468037271552769e+00  2.2940655488376880e+00  1.9638532094385639e+00  2.2015126788619490e+00  2.1657892146788202e+00  1.8040443172051692e+00  2.0432617265269961e+00  2.0170284755865371e+00  2.1469153091646764e+00  1.9587347008358722e+00  1.9488813890364229e+00  1.6311175292797584e+00  1.9795699864212595e+00  2.2414391718977567e+00  1.6305794049493161e+00  1.6289139899392040e+00  1.8063157193354242e+00  2.3453353467979263e+00  2.2713668941130578e+00  1.7806119073259468e+00  2.0084505199102001e+00  2.1301834586289274e+00  1.9904083209910264e+00  1.9866867912846413e+00  1.8481845860104507e+00  1.6474717867649544e+00  1.8427223435067737e+00  2.2516340060463280e+00  1.6062213070569431e+00  1.8157788537998072e+00  1.8078802795474904e+00  1.6384737961506446e+00  1.6753741795151535e+00  2.3772531944544011e+00  2.2725391681636511e+00  2.2031002122862389e+00  2.2580511592284722e+00  2.0220019510551741e+00  2.1362702631648633e+00  1.9920804750969172e+00  2.1458867755988758e+00  1.8444546170587819e+00  2.2984220412886818e+00  1.9054688377438584e+00  2.2889256327021981e+00  1.6271615143000884e+00  1.6240724051914435e+00  1.6017378821086830e+00  1.8129547888138648e+00  2.3537685529926544e+00  1.8738478408531027e+00  1.8395768949610531e+00  1.7991131838156929e+00  1.8120344603737215e+00  1.8988042129623237e+00  1.6090652850051366e+00  1.6243157291780994e+00  2.0752350636044827e+00  2.0721595429450859e+00  1.8604941090649807e+00  1.7923623247216751e+00  2.1195265624548645e+00  1.7777052392185730e+00  1.8308994477120031e+00  1.8321946544941337e+00  2.3588220220466480e+00  2.3778777687874326e+00  2.2897221681069868e+00  1.7771246336048763e+00  1.8925594325734445e+00  1.5075153876827008e+00  1.6266213619824645e+00  1.7651389402869611e+00  1.6232500408649670e+00  1.7438158505801997e+00  1.6220986635300425e+00  1.6344787994934109e+00  2.0942753770842182e+00  1.9196682034611017e+00  2.0209415266717485e+00  1.7134571819148408e+00  2.2256866560271149e+00  1.8696535850420195e+00  1.8783308778982102e+00  2.1798745926598064e+00  1.5075153876827010e+00  2.0036428565363016e+00  1.9691597948800481e+00  2.3447766774927028e+00  1.7999216581210780e+00  2.1178975007634513e+00  1.9512682356681270e+00  2.0922579182583529e+00  2.2454049747149520e+00  2.1643630033110761e+00  2.2111995454234896e+00  2.1221807323666679e+00  2.1594296523040852e+00  2.2102767796128102e+00  2.1553844457572371e+00  2.3430328761430674e+00  1.5075153876827010e+00  1.6068317476075711e+00  2.0966971740662239e+00  1.8183675981866769e+00  1.8247237097634379e+00  1.5075153876827010e+00  1.6235250622400799e+00  2.2580558412650684e+00  2.2248890430820785e+00  2.2697084891140338e+00  2.2390725140213670e+00  2.3739406264771872e+00  1.7659296607040988e+00  1.5075153876827010e+00  1.6281917885601356e+00  1.7570229783417621e+00  2.1587424106632187e+00  1.6154485899061832e+00  2.1534857358116191e+00  1.9445907366280741e+00  1.7492934067699522e+00  2.2447335173984757e+00  1.7168258323936934e+00  2.1635348279723257e+00  1.9853878349260592e+00  1.6055913991697495e+00  2.3166923473160188e+00  1.8556453390306760e+00  2.1108330116649476e+00  2.2928253037056914e+00  2.1597054573831804e+00  2.1218077459815441e+00  1.7667829252857064e+00  1.9259221029348701e+00  2.0106751974444839e+00  2.2089612495228801e+00  2.0857149823943710e+00  1.7902817653181755e+00  1.7445692516771685e+00  2.0566791042093291e+00  2.1642501198934836e+00  1.9736134802839091e+00  2.3226480801118847e+00  1.7725350064302472e+00  1.9966456779397403e+00  1.7488679530951892e+00  1.5075153876827008e+00  2.0556039436838915e+00  1.5075153876827008e+00  1.8615247827796506e+00  1.9349761313702443e+00  2.1865257591205354e+00  1.5075153876827008e+00  2.2122922739011504e+00  1.6155084162159103e+00  1.7999411833402701e+00  1.8142577865309435e+00  2.2653625197092828e+00  1.8836880740451929e+00  1.9894440283439156e+00  2.1546051646255533e+00  2.3337394720740394e+00  1.9459484120905477e+00  1.7303273298493942e+00  1.7367401446783406e+00  1.6242915218598031e+00  1.8976976418808096e+00  2.0315058232893741e+00  2.2155606199966287e+00  2.2921831223609863e+00  1.6187213900338553e+00  2.3216048036573587e+00  1.7379003012441678e+00  1.5075153876827008e+00  1.9496055161248367e+00  1.7552557182846005e+00  1.6125030591046019e+00  1.9781307992291652e+00  2.0392731906063517e+00  2.2973434561102417e+00  1.8632412584310225e+00  1.8701558351045509e+00  1.8326765346679093e+00  2.3590481067971130e+00  2.3625449462009613e+00  1.8355822726628186e+00  1.6152718364411967e+00  1.9906837562658137e+00  1.7205256205805677e+00  2.0819529770196179e+00  2.1584425329360464e+00  1.7271560551752938e+00  2.2756561849933572e+00  2.2076336357746889e+00  2.2122403763320402e+00  1.9624852801196486e+00  1.8646360158163384e+00  1.5075153876827008e+00  2.0789235396081858e+00  2.3784315983593793e+00  2.3647237799373166e+00  1.9979825610690709e+00  2.1185980163187388e+00  1.5952316776232212e+00  2.0447427101417959e+00  2.3245087275211804e+00  1.9472335722071641e+00  1.8968038385156010e+00  2.0771183013436416e+00  1.6933268620520379e+00  1.5075153876827010e+00  1.6135324081622782e+00  1.7120537253754915e+00  2.3370636688481707e+00  1.9945071987319476e+00  1.7251045918482191e+00  2.3201723071324452e+00  2.3625868031873214e+00  2.3301993652663109e+00  2.1322404809457582e+00  1.5075153876827010e+00  2.0988069935845726e+00  2.2170877726114511e+00  1.7871421108817289e+00  1.7254271600560513e+00  2.1892568297982864e+00  2.2003928221762048e+00  1.8720674650516496e+00  1.7998301023816261e+00  2.3137539346645934e+00  1.9511840812421997e+00  1.6427383987634765e+00  2.1168719284176225e+00  2.1419781818877643e+00  2.1206550002845863e+00  2.0532274496080656e+00  2.2264325505071283e+00  2.2394738261673122e+00  1.8792877641958947e+00  2.2027264741235206e+00  2.1404862693114244e+00  2.2303387522855296e+00  2.2078777077554466e+00  2.2939442733539281e+00  1.6189070170698006e+00  1.9118474334267532e+00  2.1775789206881107e+00  1.9210027399160297e+00  2.2051833408074892e+00  1.9594444972174965e+00  2.0406257219132509e+00  2.0024864930249651e+00  1.6309180027214929e+00  2.1395874980996412e+00  1.6556832004110427e+00  2.3675468788256548e+00  1.5972633370341529e+00  1.9716740920725857e+00  1.6135916781178006e+00  1.5982265976961485e+00  1.8585530598945841e+00  1.8824480066038318e+00  2.1094632967533515e+00  1.5075153876827008e+00  1.6097535878955396e+00  2.0227467008232209e+00  2.2004858138956105e+00  2.2583753387224044e+00  1.5075153876827008e+00  2.1505544168358193e+00  1.8644631677224970e+00  1.8310700863534741e+00  1.8643647693844971e+00  1.8310849472685640e+00  1.6142377946860864e+00  1.6063544189930481e+00  1.7067657019700542e+00  1.7194214939080485e+00  1.5996123045062185e+00  1.6131600392580021e+00  2.0472214002237581e+00  1.8481848423062885e+00  1.8693092129204947e+00  2.0326236095364769e+00  2.2946846166114425e+00  2.3095489605312549e+00  2.0474695124981990e+00  2.2922801964926802e+00  1.6172131273637511e+00  2.3585409012717808e+00  2.3644060816881645e+00  2.2505584317092882e+00  2.3347894346207152e+00  1.9440545755830292e+00  2.0419352289397614e+00  1.7560236949845693e+00  1.7267444982696314e+00  2.3408856250464702e+00  1.7410632162723678e+00  1.7531010378671457e+00  1.7041713099069302e+00  1.5075153876827008e+00  1.6028963219481245e+00  1.7064183688751213e+00  1.7620692247594358e+00  2.1045620705911379e+00  2.0569499458863221e+00  1.9525181767369701e+00  1.8083736206156804e+00  2.2486889221707518e+00  2.0447055651513928e+00  1.9268761188899404e+00  2.3459658838612416e+00  1.9876479778165752e+00  2.0255751892579168e+00  2.0838674230281340e+00  1.6075628270234157e+00  1.7513350191757371e+00  1.5075153876827012e+00  1.6021726065301918e+00  2.3238142836366542e+00  1.8691181627606575e+00  1.6013766738127519e+00  1.7084768700006401e+00  2.2853676866535539e+00  2.0819493422275843e+00  2.0547932276601513e+00  2.1223398546389531e+00  1.7578218312391718e+00  1.7182260113470817e+00  1.9462099322370154e+00  1.9137294965924065e+00  1.9539514664410080e+00  2.1307074355146476e+00  1.9151336147875713e+00  1.7241716834477214e+00  1.5998181241352851e+00  1.7471650660449520e+00  2.3667383201846430e+00  1.7521056242371260e+00  2.2966828235424095e+00  2.3585663420387069e+00  1.8239676080831411e+00  1.9251367283214076e+00  1.8629233773733649e+00  2.1980203676689061e+00  2.3103432611872203e+00  2.3549899087591202e+00  2.0549425828600643e+00  2.1413063718038061e+00  2.3410674773839748e+00  1.9887431179329058e+00  2.2224666668978337e+00  2.3311169859849752e+00  1.6054513723882793e+00  2.3116471018398497e+00  1.9797671497249012e+00  1.9983006893115565e+00  2.0843952810702846e+00  2.0972426249029650e+00  1.9418789684119537e+00  1.8711635732423666e+00  1.7788421010965687e+00  1.5912241698859793e+00  1.8155400423572949e+00  1.7144380127123651e+00  1.6027272901278309e+00  1.5075153876827008e+00  2.0974229145892509e+00  2.1740359058028909e+00  1.5075153876827008e+00  2.2227252447661336e+00  2.1632348125489824e+00  2.2410430809793818e+00  2.1869614911681712e+00  2.0051794638762019e+00  2.3708175939512341e+00  1.6020657855611813e+00  1.7180450036582480e+00  2.1325861169637079e+00  1.7327129116487627e+00  1.7173478440393077e+00  1.9745806891504172e+00  1.5918809753044880e+00  1.7114564173560793e+00  1.6065795706588737e+00  1.5952547760084257e+00  2.2645762592905259e+00  2.3794051718588025e+00  1.7832100160310342e+00  2.2746412921614203e+00  1.7540566108466802e+00  1.6093946001597661e+00  1.5075153876827008e+00  1.5075153876827008e+00  2.0670063234761633e+00  2.0446506272323517e+00  2.0658394696703279e+00  2.3054325116204044e+00  2.2800471353828398e+00  1.7847877695820868e+00  2.0928950052464415e+00  1.5075153876827008e+00  1.6039464632136098e+00  1.5075153876827010e+00  1.7308442473441563e+00  2.2824107826550883e+00  2.2519855355327043e+00  2.0394957847969661e+00  2.1900701682486945e+00  2.0021924207475466e+00  2.0684769670270162e+00  2.0840692334680586e+00  2.2581491372076541e+00  1.5995361195701665e+00  2.2495868404116202e+00  1.5936824807764314e+00  2.1283165164589719e+00  1.7133739478983092e+00  1.7572172415740432e+00  2.2218464260434061e+00  2.0095780337768412e+00  2.0577437342107543e+00  2.0435650954047211e+00  2.0866185485165327e+00  1.5075153876827010e+00  2.2412167478782061e+00  1.5938784271111821e+00  1.7379666125147397e+00  1.8604945710020799e+00  1.5075153876827005e+00  1.5075153876827012e+00  1.5878282382713416e+00  1.6993598794049674e+00  1.6023306623680047e+00  1.5075153876827008e+00  1.5966169959094341e+00  1.5990892185389345e+00  2.3425867981011086e+00  1.5075153876827008e+00  2.2958283398113224e+00  1.7010241029178570e+00  1.6973756695586615e+00  2.1712881911321538e+00  2.1314109275143256e+00  2.1670162952506957e+00  1.9631807952447455e+00  1.7915725689744699e+00  1.9309204665195185e+00  1.9648886048278900e+00  2.2024502165869992e+00  2.0527612755605