<?xml version="1.0"?>
<VTKFile type="UnstructuredGrid"  version="0.1"  >
<UnstructuredGrid>
<Piece  NumberOfPoints="8165" NumberOfCells="16057">
<Points>
<DataArray  type="Float64"  NumberOfComponents="3"  format="ascii">-0.9987569212189223 0.04984588566069748 0  -0.9987569212189223 -0.04984588566069723 0  -0.9888308262251285 -0.1490422661761745 0  -0.969077286229078 -0.2467573976902936 0  -0.9396926207859084 -0.3420201433256687 0  -0.9009688679024191 -0.433883739117558 0  -0.8532908816321557 -0.5214352033794979 0  -0.7971325072229226 -0.6038044103254772 0  -0.7330518718298266 -0.6801727377709191 0  -0.6616858375968597 -0.749781202967734 0  -0.5837436722347905 -0.8119380057158559 0  -0.4999999999999996 -0.8660254037844388 0  -0.4112871031306116 -0.9115058523116731 0  -0.318486650251685 -0.9479273461671316 0  -0.2225209339563146 -0.9749279121818236 0  -0.1243437046474858 -0.992239206600172 0  -0.02493069173807316 -0.9996891820008162 0  0.07473009358642436 -0.9972037971811801 0  0.17364817766693 -0.9848077530122081 0  0.2708404681430051 -0.962624246950012 0  0.3653410243663945 -0.9308737486442045 0  0.4562106573531629 -0.8898718088114687 0  0.5425462638657597 -0.8400259231507713 0  0.6234898018587334 -0.7818314824680299 0  0.698236818086073 -0.7158668492597183 0  0.7660444431189778 -0.6427876096865396 0  0.8262387743159945 -0.5633200580636227 0  0.8782215733702283 -0.4782539786213186 0  0.9214762118704076 -0.3884347962746947 0  0.9555728057861406 -0.2947551744109047 0  0.9801724878485438 -0.1981461431993977 0  0.9950307753654013 -0.09956784659581729 0  1 0 0  0.9950307753654014 0.09956784659581666 0  0.9801724878485438 0.1981461431993976 0  0.9555728057861407 0.2947551744109042 0  0.9214762118704076 0.3884347962746947 0  0.8782215733702285 0.4782539786213182 0  0.8262387743159949 0.5633200580636221 0  0.766044443118978 0.6427876096865393 0  0.6982368180860729 0.7158668492597184 0  0.6234898018587336 0.7818314824680298 0  0.5425462638657594 0.8400259231507714 0  0.4562106573531631 0.8898718088114685 0  0.365341024366395 0.9308737486442042 0  0.2708404681430052 0.962624246950012 0  0.1736481776669304 0.984807753012208 0  0.07473009358642439 0.9972037971811801 0  -0.02493069173807291 0.9996891820008162 0  -0.1243437046474852 0.9922392066001721 0  -0.2225209339563143 0.9749279121818236 0  -0.3184866502516843 0.9479273461671318 0  -0.4112871031306114 0.9115058523116732 0  -0.5000000000000002 0.8660254037844385 0  -0.5837436722347896 0.8119380057158566 0  -0.6616858375968592 0.7497812029677344 0  -0.7330518718298263 0.6801727377709194 0  -0.7971325072229225 0.6038044103254774 0  -0.8532908816321556 0.5214352033794981 0  -0.900968867902419 0.4338837391175582 0  -0.9396926207859083 0.3420201433256689 0  -0.9690772862290778 0.2467573976902938 0  -0.9888308262251285 0.1490422661761747 0  0 -3.33066907387547e-16 0  0.2922351073784631 0.4064742824134499 0  -0.2283892344877995 0.445489683178082 0  -0.5006223129745928 1.249000902703301e-16 0  0.4851417124831425 -0.1235322591753062 0  -0.2283892344877995 -0.4454896831780823 0  0.2244381293544702 -0.4974059892257727 0  0.6017400542999141 0.2190154685308969 0  -0.5581446696297816 -0.3410751076665679 0  0.04888157636984874 0.6522793058172992 0  -0.5581446696297816 0.341075107666568 0  0.5318003682503499 -0.4338991867093802 0  -0.02655531792237059 -0.6858388666358241 0  0.2846822903539273 0.1036158799115578 0  0.2057127456600814 -0.2065170392348358 0  0.5499950705631735 0.4828159805817372 0  0.7365712010015821 -0.03676074036240858 0  -0.3332123644358574 -0.2036218372401125 0  -0.2503111564872963 0.1529619636172051 0  0.02918230080088918 0.3894107416776539 0  0.3119038197247055 0.6693125881472082 0  -0.4533085568472715 0.5829019520470146 0  -0.2086642468434529 0.7083237716612585 0  -0.4533085568472716 -0.5829019520470144 0  -0.7255122091309201 -0.1374604227155882 0  -0.7255122091309201 0.1374604227155883 0  -0.05009008488438581 -0.2556093177500643 0  0.3851790873862939 -0.6671497493660733 0  0.6709552008695683 -0.254288853195751 0  -0.2603565207201746 -0.7190461267637986 0  -0.01274908188504958 -0.4693251432427898 0  0.180383544466418 -0.7001037260965679 0  0.3847163576179377 -0.2973202411100294 0  -0.04995432007195971 0.1995423851608914 0  -0.1678190342621316 -0.0998261742388182 0  0.1403205714878223 0.2316624653136229 0  0.7349932089154046 0.3539540744095583 0  0.7879319621210741 0.1537397135554779 0  0.5698193606007648 0.03876274873020472 0  0.4558478162384035 0.3273736178084163 0  -0.4419539887971066 0.1852825496193718 0  -0.7464085988633791 -0.3252307397060302 0  -0.7464085988633791 0.3252307397060303 0  0.02064469536321903 0.827826152484757 0  -0.6299332241648122 0.5158342404302462 0  -0.6649689944704764 -0.4839644683910337 0  0.70800971084343 -0.4326557279765403 0  -0.3223706017906134 -0.01040698776897026 0  -0.5054246806996193 -0.1745782100334494 0  -0.4005901524784139 -0.416410058674076 0  -0.1042571859310078 0.5683311063186439 0  -0.4005901524784139 0.4164100586740762 0  0.1877980753282089 0.5464445901741976 0  0.1206822009066526 -0.3580378865832485 0  0.4460042554300219 0.1536417414647964 0  0.1738116160219865 0.7624188124093614 0  -0.8321051542296078 6.938893903907228e-17 0  -0.3796152393980441 0.7404669187156475 0  0.4930547478800816 0.6553511379173387 0  0.5542774023972679 -0.610736590905896 0  0.06765100167578174 -0.8273503122395667 0  -0.1263627236672069 -0.8227899655417861 0  0.1732568394682733 -0.03313223201635654 0  0.3244981183472287 -0.0945514879573747 0  0.3964818767539355 0.5278166619520006 0  0.8225174138930775 -0.2094386686091706 0  0.3862762456383678 -0.5051310802049933 0  -0.1330531929054866 -0.5703508657222929 0  -0.177647535364107 0.2946018482597728 0  0.2899951183081392 0.2550067652537422 0  0.08441079514704673 -0.5842176964322349 0  -0.1490115292621843 0.8450863768180583 0  0.2737504708168863 -0.814776874033456 0  -0.142353501387633 0.04833782824577596 0  0.06123953108016653 -0.1447132819643286 0  0.5259110046002531 -0.2630012123273205 0  -0.2028836910358441 -0.2907872567933579 0  0.6961680963734469 0.4954410198387236 0  -0.5896348602892731 0.1963655996997491 0  -0.4687501505461277 -0.7257671910482482 0  -0.3280940097505531 0.2841706514959641 0  0.4262046142439533 0.009495858005196894 0  -0.3034808298607995 -0.575360661977006 0  -0.655077525044371 5.551115123125783e-17 0  -0.2988533483177751 0.5829350221229744 0  0.2606280324088774 -0.3621577007324048 0  0.06109885742534778 0.1213198421233271 0  0.5883360859796991 0.3533614497113013 0  0.3043653793591053 0.8070919162104671 0  -0.5977628423620102 -0.6160630342157603 0  -0.5768580796341715 0.6421662051486873 0  -0.8346144062426474 -0.2203666761707024 0  -0.8558623315149202 0.173016302948436 0  0.8612845745432718 0.03178923580507788 0  0.6132723301615656 -0.08714674393221392 0  0.1628110939985944 0.3655319136460566 0  -0.09567032507741235 0.4355151996776715 0  0.05746843722344426 0.5194633991763268 0  -0.436019945709395 -0.2881300360956253 0  -0.07596061144871569 0.6983647226519493 0  -0.6275255320060281 -0.2275110374504959 0  -0.5226873339000571 -0.469341295132707 0  -0.1125799974105092 -0.3851292258287221 0  0.619011024823678 0.6063877701182406 0  -0.2763102364367199 0.8192202812544818 0  0.7745348125424459 -0.3258032396315157 0  -0.518060795045081 0.4596654131466001 0  0.6694847456509949 0.1140659043624926 0  -0.4164279919677704 -0.08967120904698817 0  -0.3237023997545292 -0.8247802633914654 0  0.8468194484731224 -0.0896151494438422 0  0.4258293249936974 0.7649442768810276 0  -0.4452381011188446 0.304057250497095 0  -0.1429733645462529 -0.705840003340848 0  0.6708719183416081 -0.5559925608496961 0  -0.3198578181913611 -0.3250798040022018 0  0.4976994035910101 -0.722786655132186 0  0.3915320294649418 -0.7878115305337891 0  0.3013332399688708 -0.585568912488973 0  -0.05021176719619284 -0.1065627974183157 0  -0.5778499190094819 -0.08523074965409963 0  -0.4069729011762343 0.07227633527667994 0  0.1017761104609 -0.4710042480313572 0  0.8313172614604811 0.2723171946851911 0  -0.06237900155959543 0.3161471027625475 0  0.7228946573831219 -0.1512956814359499 0  0.6036725534446189 -0.345871914207299 0  0.1705451400955359 0.08284736515785829 0  -0.3661633096233823 -0.6724877309579722 0  -0.7432283975853058 0.454177419441099 0  -0.7886115584549602 -0.4294549654143447 0  0.210520553651675 0.8682430176792441 0  0.1024345016269031 -0.2481784681422972 0  -0.8322817485593992 -0.1101956133222516 0  -0.477755773363484 0.6903516518401452 0  0.03638745749539424 0.2677067415209754 0  0.005824306220235123 -0.3559598780800155 0  -0.02393057554055716 -0.5773091896046807 0  -0.656853418329663 0.3875346040967115 0  0.2023789243848113 0.6558288354998336 0  -0.5778499190094819 0.08335021638867035 0  0.8934476994401067 0.1341710538308732 0  0.3910989747205646 -0.1850985530637385 0  0.2900570811000597 0.5137964995259913 0  0.452764781948902 0.4354733387228008 0  0.4254647729341454 -0.4009256457985336 0  0.07502847893507417 -0.7203260015172291 0  0.2868290874409293 -0.7087819889995405 0  0.1884682971157424 -0.5957245682636509 0  0.7140991219034133 0.2413235030500445 0  0.1696702818122023 -0.8041727389113376 0  -0.03976182458011464 0.09606993450337703 0  -0.144895576760654 0.1537255187907586 0  -0.0679575666902707 -0.9068307063252722 0  -0.6878282916538929 0.2367020581784782 0  0.2741614604364078 -0.001581553459900201 0  0.2887101103557479 -0.2647410788026469 0  -0.6958459635813904 -0.5838840913973433 0  0.4522629467729725 -0.586590978490136 0  -0.06798126544149206 0.9071469441830431 0  -0.2251516232954611 -0.8119800599910756 0  0.7531456777622132 0.06094452615252965 0  0.5941459501568455 -0.1872721025851182 0  -0.216657295148843 -0.6276165006205845 0  -0.228089505904504 -0.1874590519798677 0  -0.26831543489379 -0.09525095123827111 0  -0.1134800437664088 -0.1811377597871832 0  -0.3760665750606548 0.5157676543792213 0  -0.1992448771787426 0.6064188495583912 0  -0.5683961947462335 -0.7122395910944973 0  -0.3431915831704673 0.186560664
[...]
<PointData  Scalars="f_800"> 
<DataArray  type="Float64"  Name="f_800"  format="ascii">1.1799999999999999e+00  1.1799999999999999e+00  1.1799999999999999e+00  1.1799999999999999e+00  1.1799999999999999e+00  1.1799999999999999e+00  1.1799999999999999e+00  1.1799999999999999e+00  1.1799999999999999e+00  1.1800000000000002e+00  1.1799999999999997e+00  1.1799999999999999e+00  1.1799999999999999e+00  1.1799999999999999e+00  1.1800000000000002e+00  1.1799999999999999e+00  1.1799999999999999e+00  1.1799999999999999e+00  1.1799999999999999e+00  1.1799999999999999e+00  1.1799999999999999e+00  1.1799999999999999e+00  1.1799999999999999e+00  1.1799999999999999e+00  1.1799999999999999e+00  1.1799999999999999e+00  1.1799999999999999e+00  1.1799999999999999e+00  1.1799999999999999e+00  1.1799999999999999e+00  1.1799999999999999e+00  1.1799999999999999e+00  1.1799999999999999e+00  1.1799999999999999e+00  1.1799999999999999e+00  1.1799999999999999e+00  1.1799999999999999e+00  1.1799999999999999e+00  1.1799999999999999e+00  1.1799999999999999e+00  1.1799999999999999e+00  1.1799999999999999e+00  1.1799999999999999e+00  1.1799999999999999e+00  1.1799999999999999e+00  1.1799999999999999e+00  1.1799999999999999e+00  1.1799999999999999e+00  1.1799999999999999e+00  1.1799999999999999e+00  1.1799999999999999e+00  1.1799999999999999e+00  1.1799999999999999e+00  1.1799999999999999e+00  1.1799999999999999e+00  1.1799999999999999e+00  1.1799999999999999e+00  1.1799999999999999e+00  1.1799999999999999e+00  1.1799999999999999e+00  1.1799999999999999e+00  1.1799999999999999e+00  1.1799999999999999e+00  1.3762902027313340e+00  1.3889385966549583e+00  1.3889583325339769e+00  1.3889409367864980e+00  1.3889496959835912e+00  1.3889583028820940e+00  1.3862255127747041e+00  1.3735091591968185e+00  1.3706837503826355e+00  1.3706808684613931e+00  1.3707479015197139e+00  1.3630336295896788e+00  1.3630188946735720e+00  1.3863689288004901e+00  1.3858425175299913e+00  1.3493194429058590e+00  1.3474109059750321e+00  1.3895409525756426e+00  1.3859311259606577e+00  1.3895530070322304e+00  1.3470908216859849e+00  1.3470110609527619e+00  1.3470703563093989e+00  1.3470628823855397e+00  1.3470484193649008e+00  1.3471305632559500e+00  1.3843582481466963e+00  1.3347749604227530e+00  1.3540533098744900e+00  1.3370986856314431e+00  1.3898692856748429e+00  1.3522795169861854e+00  1.3894642292362729e+00  1.3817432714936790e+00  1.3812551175189456e+00  1.3848615858976614e+00  1.3138909562739125e+00  1.3203029893035472e+00  1.3837912319892862e+00  1.3848252216955137e+00  1.3896744513546677e+00  1.3146561341382290e+00  1.3146754456790322e+00  1.3074682634741956e+00  1.3147164432942489e+00  1.3104303571180487e+00  1.3065237988189320e+00  1.3872335266015023e+00  1.3870635636925341e+00  1.3830651687921069e+00  1.3830780647984671e+00  1.3830511600368440e+00  1.3830607739884697e+00  1.3892194179416779e+00  1.3898211151679090e+00  1.3298303236682274e+00  1.3052202621396671e+00  1.3051973194859128e+00  1.3115985759123496e+00  1.3091807260078625e+00  1.3062919365276964e+00  1.3050168883696494e+00  1.3804246390137627e+00  1.3878673322710373e+00  1.3694140780231183e+00  1.2957889378711356e+00  1.3743298917168478e+00  1.3821446611386052e+00  1.3880983009030408e+00  1.3894398967204211e+00  1.3815235448815313e+00  1.2902029950293628e+00  1.2893513233722464e+00  1.3793725575370297e+00  1.3796293174674956e+00  1.3818232419977148e+00  1.3884870958620648e+00  1.2924631323224034e+00  1.3769202275093466e+00  1.2866252129239912e+00  1.3901470392932136e+00  1.3900968050927069e+00  1.3714616880363442e+00  1.3704935426630638e+00  1.3704862747522737e+00  1.3901435490188871e+00  1.3788330441298322e+00  1.3630483508574172e+00  1.2874788558864934e+00  1.2900812278350331e+00  1.2871106525652038e+00  1.2871062232584003e+00  1.2807811311837014e+00  1.2878799918637978e+00  1.3772704726851470e+00  1.3897471992671731e+00  1.3901309272948461e+00  1.3878192560500118e+00  1.3878288283676272e+00  1.3585693799391649e+00  1.3677283519823320e+00  1.3585943007498629e+00  1.3897666103018407e+00  1.2850089409969789e+00  1.2862385679760566e+00  1.3007040638815317e+00  1.3613566767027168e+00  1.3648808419013261e+00  1.3900926863802601e+00  1.2722910173192137e+00  1.2941505514564309e+00  1.2792848050176506e+00  1.3867377807406776e+00  1.3532232984901396e+00  1.2819987735166962e+00  1.3900869919134846e+00  1.2779295028733682e+00  1.2764976860199828e+00  1.3697113929292632e+00  1.3782296504867759e+00  1.3823597075872256e+00  1.3899775088150177e+00  1.3896043881618292e+00  1.2796878492901991e+00  1.3872197882828226e+00  1.3470107474842479e+00  1.3605267232796447e+00  1.3810080959247049e+00  1.3367107424220881e+00  1.2821931262788231e+00  1.2640687904888919e+00  1.2672288016012134e+00  1.3847510306027131e+00  1.3011228658890386e+00  1.3011130072389236e+00  1.3848275485203199e+00  1.3885372402030307e+00  1.3830519938252508e+00  1.3379186362705806e+00  1.3630311695292225e+00  1.3823483789409392e+00  1.2600428182837953e+00  1.3901319731072890e+00  1.3815827692277347e+00  1.3757436403625853e+00  1.3822737174630637e+00  1.3518850299221121e+00  1.3371799208473591e+00  1.3763495477040502e+00  1.3413977400661803e+00  1.3106555903314860e+00  1.3778247683686089e+00  1.3820066351073981e+00  1.2557199692958720e+00  1.3508694957976923e+00  1.3850212148797771e+00  1.3895784298883254e+00  1.2565142811395569e+00  1.3462603717769634e+00  1.2555284021479547e+00  1.2993066288054249e+00  1.3406889689758494e+00  1.3766873366730941e+00  1.3685525491163668e+00  1.3860174584439346e+00  1.3855236612553519e+00  1.3821112555879491e+00  1.3738944479531350e+00  1.3739090721750533e+00  1.2544339678748082e+00  1.3895566101045358e+00  1.2624583126835391e+00  1.3126369218889107e+00  1.2609734726246249e+00  1.2672812265293221e+00  1.2609239597285133e+00  1.3849496392621030e+00  1.2512896369924598e+00  1.3821704188309099e+00  1.3864240733366782e+00  1.2584724876496658e+00  1.3893759433105459e+00  1.2627187526686685e+00  1.3775844387995615e+00  1.3337244505196180e+00  1.3514434800783404e+00  1.3325568881660070e+00  1.2594124827918964e+00  1.2521813080741135e+00  1.3900878811599255e+00  1.3893037713671572e+00  1.3735576722151808e+00  1.3899657529235914e+00  1.3893385794023074e+00  1.3314128106388214e+00  1.2544740886005308e+00  1.2587042351627404e+00  1.2466573802591037e+00  1.3811384711133925e+00  1.3713095705997684e+00  1.3870956858916266e+00  1.3890947167505625e+00  1.3829593767480830e+00  1.3798383086880996e+00  1.3294585454861834e+00  1.3456311857273215e+00  1.2496259607657410e+00  1.3779989233261964e+00  1.2476287421178074e+00  1.3824634900866271e+00  1.2541460987830260e+00  1.3198654463595554e+00  1.3873116896924698e+00  1.3489891360706312e+00  1.3211732824604177e+00  1.3374317029588123e+00  1.3479607084335945e+00  1.2614656783686435e+00  1.3774124531841652e+00  1.3892339598154373e+00  1.2436486454643316e+00  1.2567748539827817e+00  1.2443848382342997e+00  1.3447689170582291e+00  1.3489963622191394e+00  1.3447718353818341e+00  1.3489993407233645e+00  1.3156151692127123e+00  1.3814628745241584e+00  1.3406484462313277e+00  1.2559589548668459e+00  1.2453222309939418e+00  1.3802334763191595e+00  1.3900922715668231e+00  1.3856890260831327e+00  1.3768606977688624e+00  1.3899292499123086e+00  1.3766213825839961e+00  1.3878506281614382e+00  1.3768586447994782e+00  1.2458520354245710e+00  1.2460117431109075e+00  1.3884275197440545e+00  1.3885074479101300e+00  1.3900178367664855e+00  1.3090628111512796e+00  1.2441084481119746e+00  1.3847774220357756e+00  1.3832068111935389e+00  1.3620353561474940e+00  1.3357851002085968e+00  1.2412697555905094e+00  1.3779997933811416e+00  1.3888821263801856e+00  1.3788078328252493e+00  1.3100739557578924e+00  1.2519417428783495e+00  1.3883242109195142e+00  1.2501983908993952e+00  1.2399893076297690e+00  1.2546321997350101e+00  1.3853438432786875e+00  1.3892206728696950e+00  1.3899464507763741e+00  1.3886002960415758e+00  1.3568986032829942e+00  1.3492897213159234e+00  1.3135832039261628e+00  1.3709899400186216e+00  1.3361464596026806e+00  1.3579505782209802e+00  1.2446280164700456e+00  1.3343668686466696e+00  1.2375633505489938e+00  1.3827947361174482e+00  1.2512821300065500e+00  1.3343808413961897e+00  1.3850663020248450e+00  1.2369589813380439e+00  1.3900286897013978e+00  1.3829509140442084e+00  1.2531038677112478e+00  1.3893979877904932e+00  1.3900450823911512e+00  1.3887081866868451e+00  1.3586445972215393e+00  1.3880693310470944e+00  1.2349318159502432e+00  1.3385741488990033e+00  1.3850649508774586e+00  1.3901092792596144e+00  1.3859032827364808e+00  1.2352691288348139e+00  1.2511101175390684e+00  1.3682231352347329e+00  1.3018557953979304e+00  1.3310751654401598e+00  1.2416322857211530e+00  1.3687752433400413e+00  1.3824334627002330e+00  1.3743903870972567e+00  1.3892277360399481e+00  1.3901432818717345e+00  1.3857636939300133e+00  1.3702688786656121e+00  1.3454913550969745e+00  1.3884066378481505e+00  1.3863676854122484e+00  1.2453718566185081e+00  1.3830897708417802e+00  1.3705380767047537e+00  1.3707783883285987e+00  1.3885758670642336e+00  1.3859134673598266e+00  1.3817498929652954e+00  1.3873694714592322e+00  1.3588077139931649e+00  1.3899564626210994e+00  1.3886021707022780e+00  1.3115244756622955e+00  1.3748127950158433e+00  1.3701011493477591e+00  1.3873792836485550e+00  1.3576104842896448e+00  1.3552316688497261e+00  1.2401742292790308e+00  1.3623955440458748e+00  1.3899324378046394e+00  1.2399512825480219e+00  1.2391510387765958e+00  1.3123040218228179e+00  1.3819508161828429e+00  1.3888430885285319e+00  1.3030125999736168e+00  1.3684519755934410e+00  1.3860344198502277e+00  1.3647301921534010e+00  1.3639699054816530e+00  1.3265027337290964e+00  1.2477226774641654e+00  1.3247449269125378e+00  1.3896661686955378e+00  1.2283351629013790e+00  1.3156548775624739e+00  1.3128911330508815e+00  1.2436366871173432e+00  1.2602620170779317e+00  1.3770583004204497e+00  1.3887701149497491e+00  1.3899748646271444e+00  1.3894387623445363e+00  1.3710664434825464e+00  1.3865582903270064e+00  1.3651417298708786e+00  1.3872990248026520e+00  1.3252995886212462e+00  1.3870175057576399e+00  1.3437913796245358e+00  1.3877452087932878e+00  1.2383181032697790e+00  1.2368701922076619e+00  1.2261574484748625e+00  1.3146407961498601e+00  1.3807731522496458e+00  1.3345316805355187e+00  1.3236776727090360e+00  1.3097434846509415e+00  1.3143323287284134e+00  1.3418903591365254e+00  1.2296602481411008e+00  1.2369726591499091e+00  1.3797186683717306e+00  1.3792866102996997e+00  1.3303987421554053e+00  1.3073368197317445e+00  1.3850084620064957e+00  1.3019171371053460e+00  1.3207812899648215e+00  1.3212290435583283e+00  1.3800267425130046e+00  1.3769503711078483e+00  1.3876948847038126e+00  1.3017126460719246e+00  1.3401025610303672e+00  1.1775153876827007e+00  1.2380601081403930e+00  1.2972006998183716e+00  1.2365139035927462e+00  1.2889152257368559e+00  1.2359344027408301e+00  1.2417561436238240e+00  1.3822081619470119e+00  1.3476890878367993e+00  1.3708113933912160e+00  1.2765857329942261e+00  1.3901384347239667e+00  1.3332702403427852e+00  1.3358950486445993e+00  1.3892830810074843e+00  1.1775153876827007e+00  1.3674781187930218e+00  1.3600544291970877e+00  1.3820225398150172e+00  1.3100672389790846e+00  1.3848629791204705e+00  1.3558171637558791e+00  1.3819622251518073e+00  1.3898415541709739e+00  1.3885173325223639e+00  1.3900980858765293e+00  1.3852716433735237e+00  1.3882266116400366e+00  1.3900851432743557e+00  1.3879710501025262e+00  1.3822539682133550e+00  1.1775153876827007e+00  1.2286123661471375e+00  1.3824990228095484e+00  1.3165534735104103e+00  1.3186832535918911e+00  1.1775153876827007e+00  1.2365684883161310e+00  1.3894387870402976e+00  1.3901429953162872e+00  1.3889213685202375e+00  1.3899683953420947e+00  1.3776214805449651e+00  1.2974794852236315e+00  1.1775153876827007e+00  1.2388107087829097e+00  1.2940446755361907e+00  1.3881952516689724e+00  1.2327433193750437e+00  1.3878383123172200e+00  1.3541421044709239e+00  1.2910455861544956e+00  1.3898577882420438e+00  1.2779921624517319e+00  1.3884665917700432e+00  1.3636569948266273e+00  1.2280340122468820e+00  1.3853362470156556e+00  1.3288892915993675e+00  1.3841270581556662e+00  1.3874601094369572e+00  1.3882386416056447e+00  1.3852798323237412e+00  1.2978025940476028e+00  1.3493575455417037e+00  1.3688710976107537e+00  1.3900633361139048e+00  1.3811339859805800e+00  1.3065498209557567e+00  1.2892212245578711e+00  1.3769842159818582e+00  1.3885078595556015e+00  1.3610692472189743e+00  1.3847064403869338e+00  1.3000018644312528e+00  1.3660678178186201e+00  1.2908921920404541e+00  1.1775153876827007e+00  1.3768183709355921e+00  1.1775153876827005e+00  1.3307018255842828e+00  1.3517256917707900e+00  1.3895369736024259e+00  1.1775153876827007e+00  1.3900997582176811e+00  1.2327606255171932e+00  1.3100483600053663e+00  1.3151041195709625e+00  1.3891294310207110e+00  1.3374629555055531e+00  1.3645539148366033e+00  1.3879178223213771e+00  1.3834343005227570e+00  1.3544889969421674e+00  1.2834944766961056e+00  1.2860825025240006e+00  1.2369796882944069e+00  1.3415913362111178e+00  1.3728054539298027e+00  1.3901231938568543e+00  1.3875171608942563e+00  1.2343456165468014e+00  1.3848185213927378e+00  1.2865478457189061e+00  1.1775153876827007e+00  1.3554129515908870e+00  1.2933610530415431e+00  1.2314099159397891e+00  1.3620736504613395e+00  1.3741443950599193e+00  1.3871158131783945e+00  1.3312618048615608e+00  1.3334334261742451e+00  1.3213859375240344e+00  1.3799935008681594e+00  1.3794600951075011e+00  1.3223560155454712e+00  1.2326963428384345e+00  1.3648328516061277e+00  1.2795176487885764e+00  1.3806707418976969e+00  1.3881592747426137e+00  1.2822229480920857e+00  1.3886035947835567e+00  1.3900635777144719e+00  1.3900918882925932e+00  1.3585026528970701e+00  1.3317253952541166e+00  1.1775153876827005e+00  1.3802441921138267e+00  1.3768544328683001e+00  1.3791196080743311e+00  1.3663238691022803e+00  1.3849332379483341e+00  1.2230372617040470e+00  1.3750560598881159e+00  1.3845063559545339e+00  1.3548536581684225e+00  1.3413103364944701e+00  1.3799892060006853e+00  1.2680385673620442e+00  1.1775153876827007e+00  1.2318811881590626e+00  1.2759651888891257e+00  1.3830246097343664e+00  1.3656171234477605e+00  1.2813849907427224e+00  1.3849762431269890e+00  1.3794513286435501e+00  1.3838551524684599e+00  1.3862003180769746e+00  1.1775153876827007e+00  1.3827694245439317e+00  1.3901370010750280e+00  1.3054255716293131e+00  1.2815124502835005e+00  1.3896208715359533e+00  1.3899302184553601e+00  1.3339674471461025e+00  1.3099871559832983e+00  1.3856338696655481e+00  1.3557893881865462e+00  1.2455624488637447e+00  1.3847608941942702e+00  1.3870291927427474e+00  1.3851426148704384e+00  1.3764578047893128e+00  1.3901318441874566e+00  1.3899780054144046e+00  1.3361845692306136e+00  1.3899722659192872e+00  1.3868983425101127e+00  1.3901019000414185e+00  1.3900402717024176e+00  1.3873746574448520e+00  1.2343749849689671e+00  1.3455295046017293e+00  1.3891877202034737e+00  1.3480468624162099e+00  1.3900083441276110e+00  1.3578093015200934e+00  1.3743475172826354e+00  1.3672470936235523e+00  1.2400547284340717e+00  1.3868523154099475e+00  1.2514823834275075e+00  1.3786730980437998e+00  1.2239650485469160e+00  1.3606239270667777e+00  1.2318878107769853e+00  1.2245164188211832e+00  1.3298005815591858e+00  1.3371367496561279e+00  1.3839697348159572e+00  1.1775153876827005e+00  1.2300860182571982e+00  1.3712116342168292e+00  1.3899391409216486e+00  1.3894336408938606e+00  1.1775153876827007e+00  1.3876369394373822e+00  1.3316866296006076e+00  1.3208261922827074e+00  1.3316115669357953e+00  1.3208286545412993e+00  1.2321852961397572e+00  1.2283936008671403e+00  1.2737370321280714e+00  1.2790359694877635e+00  1.2251892902822390e+00  1.2316636446276708e+00  1.3754589488987770e+00  1.3265035975627100e+00  1.3331675495007405e+00  1.3729855986670341e+00  1.3873258916524487e+00  1.3860355992064521e+00  1.3755365133869166e+00  1.3875049296726860e+00  1.2336295770598578e+00  1.3800715863110160e+00  1.3791702973598516e+00  1.3896975762139312e+00  1.3833059845168556e+00  1.3540130035585680e+00  1.3745788714961660e+00  1.2937095953276021e+00  1.2820244274984613e+00  1.3825388582175628e+00  1.2877910083318007e+00  1.2925264923292470e+00  1.2726817973715279e+00  1.1775153876827005e+00  1.2267535674430246e+00  1.2736396498290075e+00  1.2960095827069327e+00  1.3834119049761915e+00  1.3770277938925204e+00  1.3560957218625731e+00  1.3130783156857906e+00  1.3897524775041548e+00  1.3750573651023235e+00  1.3495677639702972e+00  1.3818619560595207e+00  1.3641740171451475e+00  1.3717115175038039e+00  1.3808932152579090e+00  1.2290046795690133e+00  1.2918769625326278e+00  1.1775153876827009e+00  1.2263477274121215e+00  1.3845829284647109e+00  1.3331332398021667e+00  1.2259968431096120e+00  1.2745114310098158e+00  1.3879905620887343e+00  1.3806434409630091e+00  1.3766772862383871e+00  1.3852909672063620e+00  1.2944087462734071e+00  1.2785274944929699e+00  1.3545433112335521e+00  1.3460840076103413e+00  1.3564374128674510e+00  1.3860797735090631e+00  1.3464568693773273e+00  1.2809968007206112e+00  1.2252540537440082e+00  1.2902142983337010e+00  1.3787993176028206e+00  1.2921839479346247e+00  1.3871581821482106e+00  1.3800636286626276e+00  1.3184291480122960e+00  1.3491569928336060e+00  1.3311923850709111e+00  1.3898679436521375e+00  1.3859682807897309e+00  1.3805977012830315e+00  1.3767156520011161e+00  1.3869519117557039e+00  1.3825157094614775e+00  1.3643856127526317e+00  1.3901438430817399e+00  1.3837476557025061e+00  1.2280275111977537e+00  1.3858367533709617e+00  1.3624674346952177e+00  1.3664233516447799e+00  1.3809627068350689e+00  1.3825845947027848e+00  1.3534710152848917e+00  1.3337031366863570e+00  1.3023571323753427e+00  1.2210527725944926e+00  1.3155436806175203e+00  1.2769932836199063e+00  1.2267261883649676e+00  1.1775153876827005e+00  1.3826103463881452e+00  1.3890327100861855e+00  1.1775153876827007e+00  1.3901342387307003e+00  1.3884600452969460e+00  1.3899448150968103e+00  1.3895534376027345e+00  1.3678040639721463e+00  1.3781391402946184e+00  1.2263311743348992e+00  1.2784781452244967e+00  1.3862470745632836e+00  1.2844568666307348e+00  1.2781507987720371e+00  1.3612687862679711e+00  1.2213941942866466e+00  1.2757414884200742e+00  1.2285632142966958e+00  1.2230355953040322e+00  1.3891648404740893e+00  1.3766854714747379e+00  1.3039777849000236e+00  1.3886675285188339e+00  1.2929372311349789e+00  1.2298732942777948e+00  1.1775153876827007e+00  1.1775153876827005e+00  1.3785411269702703e+00  1.3750572574969864e+00  1.3783737177855206e+00  1.3864275252640845e+00  1.3883461897116487e+00  1.3045807367309410e+00  1.3820488391008856e+00  1.1775153876827007e+00  1.2272798023617268e+00  1.1775153876827007e+00  1.2836968082285549e+00  1.3881868453928436e+00  1.3896480082343567e+00  1.3741614113556142e+00  1.3896563072067916e+00  1.3672148960922750e+00  1.3787438874648075e+00  1.3809345463002400e+00  1.3894330526058276e+00  1.2251203547958494e+00  1.3897250091808466e+00  1.2222265290983825e+00  1.3858607337661497e+00  1.2765263357722767e+00  1.2941668585817807e+00  1.3901511575334200e+00  1.3686945889775575e+00  1.3771590776812044e+00  1.3748651047522611e+00  1.3812714541104740e+00  1.1775153876827007e+00  1.3899493685207942e+00  1.2223747812882131e+00  1.2866092051042219e+00  1.3304147790839131e+00  1.1775153876827007e+00  1.1775153876827009e+00  1.2194034582132833e+00  1.2706826105385489e+00  1.2264839741321834e+00  1.1775153876827007e+00  1.2236915030768361e+00  1.2248799213955461e+00  1.3823127524737959e+00  1.1775153876827007e+00  1.3872315173998842e+00  1.2713703328072998e+00  1.2697985450935225e+00  1.3888922214194404e+00  1.3861161137805718e+00  1.3886730525645319e+00  1.3586550232300867e+00  1.3070744297299923e+00  1.3506601693072922e+00  1.3590617954594679e+00  1.3899555006097950e+00  1.376363314043378