<?xml version="1.0"?>
<VTKFile type="UnstructuredGrid"  version="0.1"  >
<UnstructuredGrid>
<Piece  NumberOfPoints="8165" NumberOfCells="16057">
<Points>
<DataArray  type="Float64"  NumberOfComponents="3"  format="ascii">-0.9987569212189223 0.04984588566069748 0  -0.9987569212189223 -0.04984588566069723 0  -0.9888308262251285 -0.1490422661761745 0  -0.969077286229078 -0.2467573976902936 0  -0.9396926207859084 -0.3420201433256687 0  -0.9009688679024191 -0.433883739117558 0  -0.8532908816321557 -0.5214352033794979 0  -0.7971325072229226 -0.6038044103254772 0  -0.7330518718298266 -0.6801727377709191 0  -0.6616858375968597 -0.749781202967734 0  -0.5837436722347905 -0.8119380057158559 0  -0.4999999999999996 -0.8660254037844388 0  -0.4112871031306116 -0.9115058523116731 0  -0.318486650251685 -0.9479273461671316 0  -0.2225209339563146 -0.9749279121818236 0  -0.1243437046474858 -0.992239206600172 0  -0.02493069173807316 -0.9996891820008162 0  0.07473009358642436 -0.9972037971811801 0  0.17364817766693 -0.9848077530122081 0  0.2708404681430051 -0.962624246950012 0  0.3653410243663945 -0.9308737486442045 0  0.4562106573531629 -0.8898718088114687 0  0.5425462638657597 -0.8400259231507713 0  0.6234898018587334 -0.7818314824680299 0  0.698236818086073 -0.7158668492597183 0  0.7660444431189778 -0.6427876096865396 0  0.8262387743159945 -0.5633200580636227 0  0.8782215733702283 -0.4782539786213186 0  0.9214762118704076 -0.3884347962746947 0  0.9555728057861406 -0.2947551744109047 0  0.9801724878485438 -0.1981461431993977 0  0.9950307753654013 -0.09956784659581729 0  1 0 0  0.9950307753654014 0.09956784659581666 0  0.9801724878485438 0.1981461431993976 0  0.9555728057861407 0.2947551744109042 0  0.9214762118704076 0.3884347962746947 0  0.8782215733702285 0.4782539786213182 0  0.8262387743159949 0.5633200580636221 0  0.766044443118978 0.6427876096865393 0  0.6982368180860729 0.7158668492597184 0  0.6234898018587336 0.7818314824680298 0  0.5425462638657594 0.8400259231507714 0  0.4562106573531631 0.8898718088114685 0  0.365341024366395 0.9308737486442042 0  0.2708404681430052 0.962624246950012 0  0.1736481776669304 0.984807753012208 0  0.07473009358642439 0.9972037971811801 0  -0.02493069173807291 0.9996891820008162 0  -0.1243437046474852 0.9922392066001721 0  -0.2225209339563143 0.9749279121818236 0  -0.3184866502516843 0.9479273461671318 0  -0.4112871031306114 0.9115058523116732 0  -0.5000000000000002 0.8660254037844385 0  -0.5837436722347896 0.8119380057158566 0  -0.6616858375968592 0.7497812029677344 0  -0.7330518718298263 0.6801727377709194 0  -0.7971325072229225 0.6038044103254774 0  -0.8532908816321556 0.5214352033794981 0  -0.900968867902419 0.4338837391175582 0  -0.9396926207859083 0.3420201433256689 0  -0.9690772862290778 0.2467573976902938 0  -0.9888308262251285 0.1490422661761747 0  0 -3.33066907387547e-16 0  0.2922351073784631 0.4064742824134499 0  -0.2283892344877995 0.445489683178082 0  -0.5006223129745928 1.249000902703301e-16 0  0.4851417124831425 -0.1235322591753062 0  -0.2283892344877995 -0.4454896831780823 0  0.2244381293544702 -0.4974059892257727 0  0.6017400542999141 0.2190154685308969 0  -0.5581446696297816 -0.3410751076665679 0  0.04888157636984874 0.6522793058172992 0  -0.5581446696297816 0.341075107666568 0  0.5318003682503499 -0.4338991867093802 0  -0.02655531792237059 -0.6858388666358241 0  0.2846822903539273 0.1036158799115578 0  0.2057127456600814 -0.2065170392348358 0  0.5499950705631735 0.4828159805817372 0  0.7365712010015821 -0.03676074036240858 0  -0.3332123644358574 -0.2036218372401125 0  -0.2503111564872963 0.1529619636172051 0  0.02918230080088918 0.3894107416776539 0  0.3119038197247055 0.6693125881472082 0  -0.4533085568472715 0.5829019520470146 0  -0.2086642468434529 0.7083237716612585 0  -0.4533085568472716 -0.5829019520470144 0  -0.7255122091309201 -0.1374604227155882 0  -0.7255122091309201 0.1374604227155883 0  -0.05009008488438581 -0.2556093177500643 0  0.3851790873862939 -0.6671497493660733 0  0.6709552008695683 -0.254288853195751 0  -0.2603565207201746 -0.7190461267637986 0  -0.01274908188504958 -0.4693251432427898 0  0.180383544466418 -0.7001037260965679 0  0.3847163576179377 -0.2973202411100294 0  -0.04995432007195971 0.1995423851608914 0  -0.1678190342621316 -0.0998261742388182 0  0.1403205714878223 0.2316624653136229 0  0.7349932089154046 0.3539540744095583 0  0.7879319621210741 0.1537397135554779 0  0.5698193606007648 0.03876274873020472 0  0.4558478162384035 0.3273736178084163 0  -0.4419539887971066 0.1852825496193718 0  -0.7464085988633791 -0.3252307397060302 0  -0.7464085988633791 0.3252307397060303 0  0.02064469536321903 0.827826152484757 0  -0.6299332241648122 0.5158342404302462 0  -0.6649689944704764 -0.4839644683910337 0  0.70800971084343 -0.4326557279765403 0  -0.3223706017906134 -0.01040698776897026 0  -0.5054246806996193 -0.1745782100334494 0  -0.4005901524784139 -0.416410058674076 0  -0.1042571859310078 0.5683311063186439 0  -0.4005901524784139 0.4164100586740762 0  0.1877980753282089 0.5464445901741976 0  0.1206822009066526 -0.3580378865832485 0  0.4460042554300219 0.1536417414647964 0  0.1738116160219865 0.7624188124093614 0  -0.8321051542296078 6.938893903907228e-17 0  -0.3796152393980441 0.7404669187156475 0  0.4930547478800816 0.6553511379173387 0  0.5542774023972679 -0.610736590905896 0  0.06765100167578174 -0.8273503122395667 0  -0.1263627236672069 -0.8227899655417861 0  0.1732568394682733 -0.03313223201635654 0  0.3244981183472287 -0.0945514879573747 0  0.3964818767539355 0.5278166619520006 0  0.8225174138930775 -0.2094386686091706 0  0.3862762456383678 -0.5051310802049933 0  -0.1330531929054866 -0.5703508657222929 0  -0.177647535364107 0.2946018482597728 0  0.2899951183081392 0.2550067652537422 0  0.08441079514704673 -0.5842176964322349 0  -0.1490115292621843 0.8450863768180583 0  0.2737504708168863 -0.814776874033456 0  -0.142353501387633 0.04833782824577596 0  0.06123953108016653 -0.1447132819643286 0  0.5259110046002531 -0.2630012123273205 0  -0.2028836910358441 -0.2907872567933579 0  0.6961680963734469 0.4954410198387236 0  -0.5896348602892731 0.1963655996997491 0  -0.4687501505461277 -0.7257671910482482 0  -0.3280940097505531 0.2841706514959641 0  0.4262046142439533 0.009495858005196894 0  -0.3034808298607995 -0.575360661977006 0  -0.655077525044371 5.551115123125783e-17 0  -0.2988533483177751 0.5829350221229744 0  0.2606280324088774 -0.3621577007324048 0  0.06109885742534778 0.1213198421233271 0  0.5883360859796991 0.3533614497113013 0  0.3043653793591053 0.8070919162104671 0  -0.5977628423620102 -0.6160630342157603 0  -0.5768580796341715 0.6421662051486873 0  -0.8346144062426474 -0.2203666761707024 0  -0.8558623315149202 0.173016302948436 0  0.8612845745432718 0.03178923580507788 0  0.6132723301615656 -0.08714674393221392 0  0.1628110939985944 0.3655319136460566 0  -0.09567032507741235 0.4355151996776715 0  0.05746843722344426 0.5194633991763268 0  -0.436019945709395 -0.2881300360956253 0  -0.07596061144871569 0.6983647226519493 0  -0.6275255320060281 -0.2275110374504959 0  -0.5226873339000571 -0.469341295132707 0  -0.1125799974105092 -0.3851292258287221 0  0.619011024823678 0.6063877701182406 0  -0.2763102364367199 0.8192202812544818 0  0.7745348125424459 -0.3258032396315157 0  -0.518060795045081 0.4596654131466001 0  0.6694847456509949 0.1140659043624926 0  -0.4164279919677704 -0.08967120904698817 0  -0.3237023997545292 -0.8247802633914654 0  0.8468194484731224 -0.0896151494438422 0  0.4258293249936974 0.7649442768810276 0  -0.4452381011188446 0.304057250497095 0  -0.1429733645462529 -0.705840003340848 0  0.6708719183416081 -0.5559925608496961 0  -0.3198578181913611 -0.3250798040022018 0  0.4976994035910101 -0.722786655132186 0  0.3915320294649418 -0.7878115305337891 0  0.3013332399688708 -0.585568912488973 0  -0.05021176719619284 -0.1065627974183157 0  -0.5778499190094819 -0.08523074965409963 0  -0.4069729011762343 0.07227633527667994 0  0.1017761104609 -0.4710042480313572 0  0.8313172614604811 0.2723171946851911 0  -0.06237900155959543 0.3161471027625475 0  0.7228946573831219 -0.1512956814359499 0  0.6036725534446189 -0.345871914207299 0  0.1705451400955359 0.08284736515785829 0  -0.3661633096233823 -0.6724877309579722 0  -0.7432283975853058 0.454177419441099 0  -0.7886115584549602 -0.4294549654143447 0  0.210520553651675 0.8682430176792441 0  0.1024345016269031 -0.2481784681422972 0  -0.8322817485593992 -0.1101956133222516 0  -0.477755773363484 0.6903516518401452 0  0.03638745749539424 0.2677067415209754 0  0.005824306220235123 -0.3559598780800155 0  -0.02393057554055716 -0.5773091896046807 0  -0.656853418329663 0.3875346040967115 0  0.2023789243848113 0.6558288354998336 0  -0.5778499190094819 0.08335021638867035 0  0.8934476994401067 0.1341710538308732 0  0.3910989747205646 -0.1850985530637385 0  0.2900570811000597 0.5137964995259913 0  0.452764781948902 0.4354733387228008 0  0.4254647729341454 -0.4009256457985336 0  0.07502847893507417 -0.7203260015172291 0  0.2868290874409293 -0.7087819889995405 0  0.1884682971157424 -0.5957245682636509 0  0.7140991219034133 0.2413235030500445 0  0.1696702818122023 -0.8041727389113376 0  -0.03976182458011464 0.09606993450337703 0  -0.144895576760654 0.1537255187907586 0  -0.0679575666902707 -0.9068307063252722 0  -0.6878282916538929 0.2367020581784782 0  0.2741614604364078 -0.001581553459900201 0  0.2887101103557479 -0.2647410788026469 0  -0.6958459635813904 -0.5838840913973433 0  0.4522629467729725 -0.586590978490136 0  -0.06798126544149206 0.9071469441830431 0  -0.2251516232954611 -0.8119800599910756 0  0.7531456777622132 0.06094452615252965 0  0.5941459501568455 -0.1872721025851182 0  -0.216657295148843 -0.6276165006205845 0  -0.228089505904504 -0.1874590519798677 0  -0.26831543489379 -0.09525095123827111 0  -0.1134800437664088 -0.1811377597871832 0  -0.3760665750606548 0.5157676543792213 0  -0.1992448771787426 0.6064188495583912 0  -0.5683961947462335 -0.7122395910944973 0  -0.3431915831704673 0.186560664
[...]
<PointData  Scalars="f_2912"> 
<DataArray  type="Float64"  Name="f_2912"  format="ascii">1.6600000000000004e+00  1.6600000000000006e+00  1.6600000000000001e+00  1.6600000000000004e+00  1.6600000000000004e+00  1.6600000000000004e+00  1.6600000000000004e+00  1.6600000000000001e+00  1.6600000000000004e+00  1.6600000000000006e+00  1.6600000000000001e+00  1.6600000000000004e+00  1.6600000000000004e+00  1.6600000000000004e+00  1.6600000000000006e+00  1.6600000000000004e+00  1.6600000000000004e+00  1.6600000000000004e+00  1.6600000000000004e+00  1.6600000000000001e+00  1.6600000000000004e+00  1.6600000000000004e+00  1.6600000000000004e+00  1.6600000000000004e+00  1.6600000000000004e+00  1.6600000000000004e+00  1.6600000000000004e+00  1.6600000000000004e+00  1.6600000000000004e+00  1.6600000000000001e+00  1.6600000000000004e+00  1.6600000000000001e+00  1.6600000000000004e+00  1.6600000000000004e+00  1.6600000000000004e+00  1.6600000000000001e+00  1.6600000000000006e+00  1.6600000000000004e+00  1.6600000000000004e+00  1.6600000000000001e+00  1.6600000000000004e+00  1.6600000000000004e+00  1.6600000000000006e+00  1.6600000000000004e+00  1.6600000000000001e+00  1.6600000000000001e+00  1.6599999999999999e+00  1.6600000000000004e+00  1.6600000000000001e+00  1.6600000000000001e+00  1.6600000000000004e+00  1.6600000000000006e+00  1.6600000000000004e+00  1.6600000000000001e+00  1.6600000000000001e+00  1.6600000000000004e+00  1.6600000000000004e+00  1.6600000000000001e+00  1.6600000000000004e+00  1.6600000000000001e+00  1.6600000000000001e+00  1.6600000000000001e+00  1.6600000000000004e+00  2.6030359980301432e+00  2.3701441924433331e+00  2.3702743648234361e+00  2.3701751088407219e+00  2.3702253449405974e+00  2.3702787562582368e+00  2.3260844045999782e+00  2.2204798787167017e+00  2.2036552102771241e+00  2.2036658717350894e+00  2.2037443606248046e+00  2.1628401352768907e+00  2.1628021590002144e+00  2.5181399179637380e+00  2.5244797490752151e+00  2.1017176763418708e+00  2.0939106041116236e+00  2.4617713528578702e+00  2.5234805852211348e+00  2.4618368655394463e+00  2.0925926550483562e+00  2.0924925639645817e+00  2.0925919626435654e+00  2.0925500669218633e+00  2.0925864723483292e+00  2.0926676920781251e+00  2.5403471347075262e+00  2.0467197405671533e+00  2.1214733372782608e+00  2.0549515369288773e+00  2.3984321852909956e+00  2.1139541354109879e+00  2.3835291411322928e+00  2.5639080200524811e+00  2.5678857678188280e+00  2.5352522428387618e+00  1.9781647506403222e+00  1.9982072756653753e+00  2.2993303946110077e+00  2.3099270459233971e+00  2.3898760221350681e+00  1.9806158536281380e+00  1.9806165587670450e+00  1.9589178804957195e+00  1.9806860405650817e+00  1.9677852565620215e+00  1.9561961877429890e+00  2.5068570545693931e+00  2.3372023548163163e+00  2.2922018083979259e+00  2.2922100148374849e+00  2.2921393904906426e+00  2.2921771433698166e+00  2.4708369297311101e+00  2.3964241086306655e+00  2.0295838003683233e+00  1.9524929294544300e+00  1.9524222540102205e+00  1.9713631873286901e+00  1.9640974335312418e+00  1.9555992685402885e+00  1.9519019440853438e+00  2.5743606104029846e+00  2.4974013742217704e+00  2.1962478099941820e+00  1.9256731058418590e+00  2.2258117547710130e+00  2.2836821612568325e+00  2.4935014929941266e+00  2.4649195349117927e+00  2.2784819535392309e+00  1.9104253587035884e+00  1.9081027139412037e+00  2.5821844277410961e+00  2.5803020754587709e+00  2.2809994152444566e+00  2.4866965057881254e+00  1.9164579835654834e+00  2.2429333509099028e+00  1.9007874454346338e+00  2.4283883301898483e+00  2.4345521697565800e+00  2.2081428892130956e+00  2.2024736837885337e+00  2.2024660160344269e+00  2.4184149103056356e+00  2.5860288786596430e+00  2.1629122298265187e+00  1.9030833893435333e+00  1.9100215620284047e+00  1.9020692326686766e+00  1.9020640267528859e+00  1.8854615628744393e+00  1.9042054455273214e+00  2.2453559016582725e+00  2.4546814823733660e+00  2.4186068025446157e+00  2.3490840797442778e+00  2.3491263876577047e+00  2.1416437906924739e+00  2.1869810363652080e+00  2.1416593994503703e+00  2.4538420503548610e+00  1.8965304128036609e+00  1.8998107161844153e+00  1.9394274463025118e+00  2.1546882021211440e+00  2.1721602782648972e+00  2.4347911870369785e+00  1.8638234095771835e+00  1.9211697542293495e+00  1.8816274326375309e+00  2.3327489622215891e+00  2.1178471835069375e+00  1.8885730933130167e+00  2.4101533045061836e+00  1.8781225980713596e+00  1.8744260439696585e+00  2.1981247804948336e+00  2.5902278536255321e+00  2.2854375291500242e+00  2.4447376178522604e+00  2.3875250351905439e+00  1.8827163151166304e+00  2.5069167755277428e+00  2.0923655042655263e+00  2.1506168569886732e+00  2.5698450765081269e+00  2.0535433956340352e+00  1.8891081431640493e+00  1.8434219419105393e+00  1.8512037936393411e+00  2.5363839168780626e+00  1.9406245659179717e+00  1.9405873478798445e+00  2.5356127740356698e+00  2.4857599508387604e+00  2.2921743685910245e+00  2.0579787491887447e+00  2.1628333280085910e+00  2.2856089687044756e+00  1.8337945241151103e+00  2.4294297832091822e+00  2.2787858266557328e+00  2.2349927316070688e+00  2.2848070400983698e+00  2.1122813514607075e+00  2.0551841943203009e+00  2.2390266377368309e+00  2.0707760685496304e+00  1.9685449231398671e+00  2.5929830113054417e+00  2.5617256124400969e+00  1.8235176669258586e+00  2.1079175071534850e+00  2.5335332069797110e+00  2.4609374373405295e+00  1.8253254948011866e+00  2.0893637781847847e+00  1.8229983437185242e+00  1.9356064042572900e+00  2.0681623083354279e+00  2.2412183875302238e+00  2.1914523396336527e+00  2.5224453025768279e+00  2.5280991663122410e+00  2.5608664335428908e+00  2.2229259174194986e+00  2.2229860682037854e+00  1.8203615224929375e+00  2.4617263445917121e+00  1.8395377272215327e+00  1.9745288188870980e+00  1.8358931476398972e+00  1.8513451938015721e+00  1.8358374582117367e+00  2.5342977436155860e+00  1.8129911886904990e+00  2.5603599963567150e+00  2.3287505344646728e+00  1.8300471764490711e+00  2.3804012882635845e+00  1.8401912286933575e+00  2.5946036701601645e+00  2.0428578526338868e+00  2.1104501525942911e+00  2.0388588315615617e+00  1.8322065286278058e+00  1.8150340126855646e+00  2.4123150916612532e+00  2.3788964449497283e+00  2.2206997801401482e+00  2.4040652244743255e+00  2.3795990653701455e+00  2.0348808015815205e+00  1.8205544320040721e+00  1.8305564975858275e+00  1.8022932225003261e+00  2.2749283945252023e+00  2.2073165334357774e+00  2.3379750593369755e+00  2.3738237138283442e+00  2.2911234398364551e+00  2.2643691971432580e+00  2.0281614971123765e+00  2.0868929147765409e+00  1.8091566097575289e+00  2.5918111084703708e+00  1.8045193654098388e+00  2.2865573851561538e+00  1.8197027575795348e+00  1.9968586454662649e+00  2.5057765409670543e+00  2.1003331473226381e+00  2.0010205387416224e+00  2.0561393712769771e+00  2.0960800109385134e+00  1.8371548734595853e+00  2.5957496981556787e+00  2.4704701474317066e+00  1.7954344384383212e+00  1.8258396669061061e+00  1.7970026929382801e+00  2.0836430485178408e+00  2.1002956075725834e+00  2.0836420571129759e+00  2.1002989608399338e+00  1.9835604427703735e+00  2.5662166886389919e+00  2.0679032079949815e+00  1.8239399510852421e+00  1.7991955584675074e+00  2.2676809868440375e+00  2.4121142137695322e+00  2.3197573915111303e+00  2.2424142125003783e+00  2.4007757697996333e+00  2.2408735561519975e+00  2.3492447649182626e+00  2.2424377147676267e+00  1.8004832815450871e+00  1.8007665982150043e+00  2.4876071908326951e+00  2.4861358484723057e+00  2.4065252742865733e+00  1.9637479728541971e+00  1.7964140908881809e+00  2.5361786554651542e+00  2.5513148488438948e+00  2.1579252708844932e+00  2.0503090147704164e+00  1.7900215024406692e+00  2.2505293141031992e+00  2.3686840260904800e+00  2.2565667300698182e+00  1.9667790470815110e+00  1.8145435381915107e+00  2.4896906823167697e+00  1.8105001498423932e+00  1.7871418399711316e+00  1.8208114191684552e+00  2.3157138662871066e+00  2.3768701919039570e+00  2.4456937082514383e+00  2.3628783501100403e+00  2.1338011604815734e+00  2.1014850176740483e+00  1.9773290296929917e+00  2.2052069903556264e+00  2.0514411366637511e+00  2.1385925332254394e+00  1.7976681013578348e+00  2.0451114798674737e+00  1.7816083092491581e+00  2.2895781006431810e+00  1.8130309681185048e+00  2.0452089033935210e+00  2.3123513435386100e+00  1.7803139053535677e+00  2.4403694564243525e+00  2.2910245453560529e+00  1.8173259490120544e+00  2.4663210054567815e+00  2.4398180834005516e+00  2.3650730258195032e+00  2.1419069121526273e+00  2.4940695692063080e+00  1.7758513720996900e+00  2.0603043355871367e+00  2.5331353729536388e+00  2.4341226214870928e+00  2.5238375284010943e+00  1.7765590968991019e+00  1.8125307482370143e+00  2.1896536430591369e+00  1.9427547074916625e+00  2.0337259651792321e+00  1.7907387816852813e+00  2.1928002726842259e+00  2.5581239548642518e+00  2.2262614350206489e+00  2.4705683220077472e+00  2.4249269478302335e+00  2.5254027649316066e+00  2.2010813142602337e+00  2.0864102742378878e+00  2.3589619626941971e+00  2.3279984670079856e+00  1.7992533272061633e+00  2.2921871036252197e+00  2.2026196528306969e+00  2.2041774909457117e+00  2.4850113506231573e+00  2.3223976106787410e+00  2.5638694046627166e+00  2.5048966740009413e+00  2.1427289772714331e+00  2.4022196589181211e+00  2.3628501122918029e+00  1.9710881908320783e+00  2.2288218116692260e+00  2.2003180431567522e+00  2.3421058701588726e+00  2.1371975052618111e+00  2.1265571709643880e+00  1.7875052757724761e+00  2.1597233403274019e+00  2.4463917210166368e+00  1.7869341030530155e+00  1.7851779882584515e+00  1.9735162814894076e+00  2.5622224014902462e+00  2.4796212755581211e+00  1.9460893905762406e+00  2.1910093927022420e+00  2.3237446482315391e+00  2.1714577695593049e+00  2.1674241105834287e+00  2.0182914941161409e+00  1.8047827476403584e+00  2.0124399986887633e+00  2.4576995633676120e+00  1.7612402789084125e+00  1.9836212178853183e+00  1.9751834278166167e+00  1.7952697460899694e+00  1.8342960061665374e+00  2.5980827650626530e+00  2.4809262281791691e+00  2.4039738223072584e+00  2.4648240201794649e+00  2.2057141689459194e+00  2.3304203748552950e+00  2.1732626398429682e+00  2.3409768766751933e+00  2.0142960383464157e+00  2.5097555324218321e+00  2.0797802187124983e+00  2.4991685785368505e+00  1.7833291249777246e+00  1.7800679694774482e+00  1.7565151706361934e+00  1.9806071346968317e+00  2.5716842039863455e+00  2.0458080390664395e+00  2.0090762713703909e+00  1.9658263323783134e+00  1.9796225208097329e+00  2.0726146355275872e+00  1.7642434975207320e+00  1.7803260514565853e+00  2.2636534005909783e+00  2.2602985836026996e+00  2.0314851532114351e+00  1.9586193469714437e+00  2.3120685115122663e+00  1.9429926060283438e+00  1.9997915706977119e+00  2.0011757631763443e+00  2.5773586362520393e+00  2.5987858688736516e+00  2.5000553432039667e+00  1.9423725265959653e+00  2.0659011548537753e+00  1.6575153876827011e+00  1.7827593918101967e+00  1.9296023671928217e+00  1.7791967174964372e+00  1.9069111687412441e+00  1.7779854153891759e+00  1.7910530892480512e+00  2.2844428092181959e+00  2.0950632756272460e+00  2.2045689800593773e+00  1.8746610509258730e+00  2.4289423257224789e+00  2.0413054801968271e+00  2.0506190247982787e+00  2.3783568607185881e+00  1.6575153876827011e+00  2.1857975886015035e+00  2.1484630930146791e+00  2.5615963114695335e+00  1.9666856652644649e+00  2.3102824183485753e+00  2.1291336832533689e+00  2.2822381349001919e+00  2.4507890489770987e+00  2.3612817102423151e+00  2.4129201586545284e+00  2.3149756786637945e+00  2.3558563556792302e+00  2.4119008261555188e+00  2.3514095641642716e+00  2.5596412133325823e+00  1.6575153876827011e+00  1.7618856637875178e+00  2.2870899585444762e+00  1.9863874745032541e+00  1.9931875211212471e+00  1.6575153876827009e+00  1.7794948843782827e+00  2.4648292182918947e+00  2.4280594329685181e+00  2.4777778917371660e+00  2.4437695499434371e+00  2.5943547081089400e+00  1.9304468521454505e+00  1.6575153876827011e+00  1.7844157697916181e+00  1.9209659336022411e+00  2.3550995618012660e+00  1.7709727510187057e+00  2.3493237430376830e+00  2.1219295598343693e+00  1.9127399427879899e+00  2.4500444572467637e+00  1.8782355286768495e+00  2.3603711448298617e+00  2.1660212858010888e+00  1.7605759135450603e+00  2.5301556634130828e+00  2.0262854331246314e+00  2.3025484342979410e+00  2.5035145515339683e+00  2.3561601176189040e+00  2.3145622079196895e+00  1.9313557402721195e+00  2.1017996967322516e+00  2.1934245572233277e+00  2.4104478556088060e+00  2.2750910980763854e+00  1.9564030321208394e+00  1.9077114887210600e+00  2.2434263314088509e+00  2.3611578771556494e+00  2.1532790037291103e+00  2.5368149139985716e+00  1.9374807045569993e+00  2.1782114373900989e+00  1.9122859501998681e+00  1.6575153876827009e+00  2.2422551528556594e+00  1.6575153876827009e+00  2.0325923358525633e+00  2.1115572798815800e+00  2.3856866636545688e+00  1.6575153876827011e+00  2.4141288130620269e+00  1.7710370446792529e+00  1.9667092700139233e+00  1.9819982787048505e+00  2.4729468774685590e+00  2.0563746135042846e+00  2.1704103173019247e+00  2.3505532947711041e+00  2.5492276553766753e+00  2.1233936514245348e+00  1.8925761964626249e+00  1.8993902741894113e+00  1.7802985658169082e+00  2.0714231170827451e+00  2.2160371372601677e+00  2.4177418967194280e+00  2.5027976918921957e+00  1.7744206468515444e+00  2.5356482069445727e+00  1.9006233272001394e+00  1.6575153876827011e+00  2.1273384329788687e+00  1.9190849617213703e+00  1.7678581948451069e+00  2.1581664215952472e+00  2.2244828971722810e+00  2.5085512920378861e+00  2.0344302934129175e+00  2.0418433207380442e+00  2.0016917855913405e+00  2.5776124936648381e+00  2.5815409551707029e+00  2.0048008748015191e+00  1.7707823763008224e+00  2.1717513121371321e+00  1.8821633788009942e+00  2.2709803936315955e+00  2.3547717621748254e+00  1.8892056230906149e+00  2.4843931112192159e+00  2.4089791980197361e+00  2.4140723206880121e+00  2.1412490759012335e+00  2.0359228991546754e+00  1.6575153876827009e+00  2.2676759576271093e+00  2.5994093794348263e+00  2.5839896822639314e+00  2.1796623104332502e+00  2.3110496573395647e+00  1.7496540392437618e+00  2.2304334613282939e+00  2.5388956894529744e+00  2.1247755741764300e+00  2.0704649166303626e+00  2.2657069668123362e+00  1.8533158661384779e+00  1.6575153876827011e+00  1.7689460669189716e+00  1.8731754979599138e+00  2.5529511176330795e+00  2.1758950643481634e+00  1.8870268246330950e+00  2.5340457952399356e+00  2.5815882476505858e+00  2.5452641088928902e+00  2.3260019038330122e+00  1.6575153876827009e+00  2.2893941485238227e+00  2.4194297771719953e+00  1.9530517808987813e+00  1.8873698862507531e+00  2.3886986906655676e+00  2.4009837416580448e+00  2.0438998717877510e+00  1.9665929854063728e+00  2.5268716071876955e+00  2.1290435772545542e+00  1.7997795681497695e+00  2.3091591461438834e+00  2.3366828469066854e+00  2.3133021354524117e+00  2.2396658350180032e+00  2.4297681995145521e+00  2.4442124494462329e+00  2.0516460217248018e+00  2.4035606851232791e+00  2.3350468158048945e+00  2.4340927964663504e+00  2.4092517804877316e+00  2.5047619878096419e+00  1.7746226740509723e+00  2.0866470521610339e+00  2.3758278361198180e+00  2.0965005897894753e+00  2.4062745928897127e+00  2.1379610149123436e+00  2.2259567721723625e+00  2.1845436788406438e+00  1.7872973709071180e+00  2.3340576672150477e+00  1.8134608872473408e+00  2.5871630458256440e+00  1.7518014201580674e+00  2.1511822550898030e+00  1.7690108559159237e+00  1.7528078298513590e+00  2.0294029462142373e+00  2.0550384055658761e+00  2.3010505458475872e+00  1.6575153876827009e+00  1.7649593002210968e+00  2.2065221198602090e+00  2.4010855818572541e+00  2.4651832132313287e+00  1.6575153876827011e+00  2.3461031601488029e+00  2.0357359477380967e+00  1.9999754465141837e+00  2.0356351390694427e+00  1.9999915861760271e+00  1.7696935190195042e+00  1.7613812347768696e+00  1.8675665381350162e+00  1.8809940070843112e+00  1.7542682570235544e+00  1.7685574685918912e+00  2.2331312574826203e+00  2.0182916646063043e+00  2.0409357069843810e+00  2.2172538762973710e+00  2.5055864317388994e+00  2.5221748022328732e+00  2.2333972594227030e+00  2.5029064590192269e+00  1.7728293399561641e+00  2.5770426188866247e+00  2.5836325005746628e+00  2.4565061900368814e+00  2.5504036303160897e+00  2.1213505354370961e+00  2.2273800098210894e+00  1.9198969035083602e+00  1.8887717268349371e+00  2.5572337544850043e+00  1.9039876953135648e+00  1.9167917428079821e+00  1.8648106808663669e+00  1.6575153876827007e+00  1.7577325466264988e+00  1.8671929616934899e+00  1.9263355276355900e+00  2.2956899723335580e+00  2.2437212224481535e+00  2.1304859240243172e+00  1.9757089122681912e+00  2.4544319488566675e+00  2.2303922202838695e+00  2.1028320375876954e+00  2.5629299449993015e+00  2.1684650222337862e+00  2.2095962899341952e+00  2.2730737148787914e+00  1.7626522404662888e+00  1.9149085114713156e+00  1.6575153876827011e+00  1.7569755320216474e+00  2.5381188564463906e+00  2.0407281273834865e+00  1.7561329382005517e+00  1.8693759256471794e+00  2.4952051112040112e+00  2.2709793193854586e+00  2.2413737786288301e+00  2.3151495773391138e+00  1.9218103474084691e+00  1.8797264576119876e+00  2.1236769943078015e+00  2.0886686639732557e+00  2.1320341694562410e+00  2.3243192496410816e+00  2.0901812994196272e+00  1.8860367897435768e+00  1.7544888759266386e+00  1.9104755134280826e+00  2.5862543486595539e+00  1.9157277996820603e+00  2.5078157708112134e+00  2.5770716561888980e+00  1.9923786868867712e+00  2.1009527552145340e+00  2.0340862806348365e+00  2.3983660859501041e+00  2.5230610324032301e+00  2.5730550739165992e+00  2.2415348331286675e+00  2.3359481056901772e+00  2.5574375406060548e+00  2.1696533343116133e+00  2.4253795048595341e+00  2.5462913478608886e+00  1.7604218830235960e+00  2.5245181622050179e+00  2.1599336287946715e+00  2.1800033883661141e+00  2.2736500413680454e+00  2.2876839426499007e+00  2.1190029580079957e+00  2.0429287149143533e+00  1.9442025958330575e+00  1.7454344798345691e+00  1.9833690603235914e+00  1.8757020387129739e+00  1.7575486477472835e+00  1.6575153876827009e+00  2.2878805557750277e+00  2.3719254694935672e+00  1.6575153876827011e+00  2.4256666500469168e+00  2.3600399696617029e+00  2.4459521238482820e+00  2.3861668543145833e+00  2.1874617935941361e+00  2.5908414662103056e+00  1.7568592326797325e+00  1.8795316388656322e+00  2.3263791075054789e+00  1.8951110986864093e+00  1.8787957114441973e+00  2.1543271452501087e+00  1.7461243461919629e+00  1.8725390031982536e+00  1.7616121955400257e+00  1.7496797343815731e+00  2.4720730624696037e+00  2.6005054526236955e+00  1.9488588777986540e+00  2.4832631769365525e+00  1.9178044490956807e+00  1.7645849933243078e+00  1.6575153876827011e+00  1.6575153876827009e+00  2.2546797688690408e+00  2.2303314439157753e+00  2.2534073199639053e+00  2.5175770021982662e+00  2.4892794339543083e+00  1.9505389326155431e+00  2.2829333240766618e+00  1.6575153876827011e+00  1.7588375981865390e+00  1.6575153876827011e+00  1.8931261198228730e+00  2.4919120337938474e+00  2.4580904965100183e+00  2.2247272191841572e+00  2.3895944971211889e+00  2.1842219183318639e+00  2.2562843651000746e+00  2.2732924578633957e+00  2.4649330646889709e+00  1.7541913332411294e+00  2.4554282943084638e+00  1.7480274480151101e+00  2.3216984611133840e+00  1.8745753374470719e+00  1.9211677036051111e+00  2.4246925595906350e+00  2.1922301906577095e+00  2.2445849221147398e+00  2.2291517079841232e+00  2.2760756158642876e+00  1.6575153876827011e+00  2.4461437503406347e+00  1.7482283721924468e+00  1.9006901231886422e+00  2.0314839423551803e+00  1.6575153876827011e+00  1.6575153876827016e+00  1.7418554754517235e+00  1.8597042788431808e+00  1.7571358678021196e+00  1.6575153876827011e+00  1.7511159973199355e+00  1.7537227891213942e+00  2.5591411457101154e+00  1.6575153876827009e+00  2.5068622253427693e+00  1.8614709324606520e+00  1.8576047100907298e+00  2.3689012916149856e+00  2.3250934656704501e+00  2.3641997309758787e+00  2.1420017882427000e+00  1.9577742060772194e+00  2.1071869848610576e+00  2.1438466347120055e+00  2.4032568939280754e+00  2.2391604759165