<?xml version="1.0"?>
<VTKFile type="UnstructuredGrid"  version="0.1"  >
<UnstructuredGrid>
<Piece  NumberOfPoints="8165" NumberOfCells="16057">
<Points>
<DataArray  type="Float64"  NumberOfComponents="3"  format="ascii">-0.9987569212189223 0.04984588566069748 0  -0.9987569212189223 -0.04984588566069723 0  -0.9888308262251285 -0.1490422661761745 0  -0.969077286229078 -0.2467573976902936 0  -0.9396926207859084 -0.3420201433256687 0  -0.9009688679024191 -0.433883739117558 0  -0.8532908816321557 -0.5214352033794979 0  -0.7971325072229226 -0.6038044103254772 0  -0.7330518718298266 -0.6801727377709191 0  -0.6616858375968597 -0.749781202967734 0  -0.5837436722347905 -0.8119380057158559 0  -0.4999999999999996 -0.8660254037844388 0  -0.4112871031306116 -0.9115058523116731 0  -0.318486650251685 -0.9479273461671316 0  -0.2225209339563146 -0.9749279121818236 0  -0.1243437046474858 -0.992239206600172 0  -0.02493069173807316 -0.9996891820008162 0  0.07473009358642436 -0.9972037971811801 0  0.17364817766693 -0.9848077530122081 0  0.2708404681430051 -0.962624246950012 0  0.3653410243663945 -0.9308737486442045 0  0.4562106573531629 -0.8898718088114687 0  0.5425462638657597 -0.8400259231507713 0  0.6234898018587334 -0.7818314824680299 0  0.698236818086073 -0.7158668492597183 0  0.7660444431189778 -0.6427876096865396 0  0.8262387743159945 -0.5633200580636227 0  0.8782215733702283 -0.4782539786213186 0  0.9214762118704076 -0.3884347962746947 0  0.9555728057861406 -0.2947551744109047 0  0.9801724878485438 -0.1981461431993977 0  0.9950307753654013 -0.09956784659581729 0  1 0 0  0.9950307753654014 0.09956784659581666 0  0.9801724878485438 0.1981461431993976 0  0.9555728057861407 0.2947551744109042 0  0.9214762118704076 0.3884347962746947 0  0.8782215733702285 0.4782539786213182 0  0.8262387743159949 0.5633200580636221 0  0.766044443118978 0.6427876096865393 0  0.6982368180860729 0.7158668492597184 0  0.6234898018587336 0.7818314824680298 0  0.5425462638657594 0.8400259231507714 0  0.4562106573531631 0.8898718088114685 0  0.365341024366395 0.9308737486442042 0  0.2708404681430052 0.962624246950012 0  0.1736481776669304 0.984807753012208 0  0.07473009358642439 0.9972037971811801 0  -0.02493069173807291 0.9996891820008162 0  -0.1243437046474852 0.9922392066001721 0  -0.2225209339563143 0.9749279121818236 0  -0.3184866502516843 0.9479273461671318 0  -0.4112871031306114 0.9115058523116732 0  -0.5000000000000002 0.8660254037844385 0  -0.5837436722347896 0.8119380057158566 0  -0.6616858375968592 0.7497812029677344 0  -0.7330518718298263 0.6801727377709194 0  -0.7971325072229225 0.6038044103254774 0  -0.8532908816321556 0.5214352033794981 0  -0.900968867902419 0.4338837391175582 0  -0.9396926207859083 0.3420201433256689 0  -0.9690772862290778 0.2467573976902938 0  -0.9888308262251285 0.1490422661761747 0  0 -3.33066907387547e-16 0  0.2922351073784631 0.4064742824134499 0  -0.2283892344877995 0.445489683178082 0  -0.5006223129745928 1.249000902703301e-16 0  0.4851417124831425 -0.1235322591753062 0  -0.2283892344877995 -0.4454896831780823 0  0.2244381293544702 -0.4974059892257727 0  0.6017400542999141 0.2190154685308969 0  -0.5581446696297816 -0.3410751076665679 0  0.04888157636984874 0.6522793058172992 0  -0.5581446696297816 0.341075107666568 0  0.5318003682503499 -0.4338991867093802 0  -0.02655531792237059 -0.6858388666358241 0  0.2846822903539273 0.1036158799115578 0  0.2057127456600814 -0.2065170392348358 0  0.5499950705631735 0.4828159805817372 0  0.7365712010015821 -0.03676074036240858 0  -0.3332123644358574 -0.2036218372401125 0  -0.2503111564872963 0.1529619636172051 0  0.02918230080088918 0.3894107416776539 0  0.3119038197247055 0.6693125881472082 0  -0.4533085568472715 0.5829019520470146 0  -0.2086642468434529 0.7083237716612585 0  -0.4533085568472716 -0.5829019520470144 0  -0.7255122091309201 -0.1374604227155882 0  -0.7255122091309201 0.1374604227155883 0  -0.05009008488438581 -0.2556093177500643 0  0.3851790873862939 -0.6671497493660733 0  0.6709552008695683 -0.254288853195751 0  -0.2603565207201746 -0.7190461267637986 0  -0.01274908188504958 -0.4693251432427898 0  0.180383544466418 -0.7001037260965679 0  0.3847163576179377 -0.2973202411100294 0  -0.04995432007195971 0.1995423851608914 0  -0.1678190342621316 -0.0998261742388182 0  0.1403205714878223 0.2316624653136229 0  0.7349932089154046 0.3539540744095583 0  0.7879319621210741 0.1537397135554779 0  0.5698193606007648 0.03876274873020472 0  0.4558478162384035 0.3273736178084163 0  -0.4419539887971066 0.1852825496193718 0  -0.7464085988633791 -0.3252307397060302 0  -0.7464085988633791 0.3252307397060303 0  0.02064469536321903 0.827826152484757 0  -0.6299332241648122 0.5158342404302462 0  -0.6649689944704764 -0.4839644683910337 0  0.70800971084343 -0.4326557279765403 0  -0.3223706017906134 -0.01040698776897026 0  -0.5054246806996193 -0.1745782100334494 0  -0.4005901524784139 -0.416410058674076 0  -0.1042571859310078 0.5683311063186439 0  -0.4005901524784139 0.4164100586740762 0  0.1877980753282089 0.5464445901741976 0  0.1206822009066526 -0.3580378865832485 0  0.4460042554300219 0.1536417414647964 0  0.1738116160219865 0.7624188124093614 0  -0.8321051542296078 6.938893903907228e-17 0  -0.3796152393980441 0.7404669187156475 0  0.4930547478800816 0.6553511379173387 0  0.5542774023972679 -0.610736590905896 0  0.06765100167578174 -0.8273503122395667 0  -0.1263627236672069 -0.8227899655417861 0  0.1732568394682733 -0.03313223201635654 0  0.3244981183472287 -0.0945514879573747 0  0.3964818767539355 0.5278166619520006 0  0.8225174138930775 -0.2094386686091706 0  0.3862762456383678 -0.5051310802049933 0  -0.1330531929054866 -0.5703508657222929 0  -0.177647535364107 0.2946018482597728 0  0.2899951183081392 0.2550067652537422 0  0.08441079514704673 -0.5842176964322349 0  -0.1490115292621843 0.8450863768180583 0  0.2737504708168863 -0.814776874033456 0  -0.142353501387633 0.04833782824577596 0  0.06123953108016653 -0.1447132819643286 0  0.5259110046002531 -0.2630012123273205 0  -0.2028836910358441 -0.2907872567933579 0  0.6961680963734469 0.4954410198387236 0  -0.5896348602892731 0.1963655996997491 0  -0.4687501505461277 -0.7257671910482482 0  -0.3280940097505531 0.2841706514959641 0  0.4262046142439533 0.009495858005196894 0  -0.3034808298607995 -0.575360661977006 0  -0.655077525044371 5.551115123125783e-17 0  -0.2988533483177751 0.5829350221229744 0  0.2606280324088774 -0.3621577007324048 0  0.06109885742534778 0.1213198421233271 0  0.5883360859796991 0.3533614497113013 0  0.3043653793591053 0.8070919162104671 0  -0.5977628423620102 -0.6160630342157603 0  -0.5768580796341715 0.6421662051486873 0  -0.8346144062426474 -0.2203666761707024 0  -0.8558623315149202 0.173016302948436 0  0.8612845745432718 0.03178923580507788 0  0.6132723301615656 -0.08714674393221392 0  0.1628110939985944 0.3655319136460566 0  -0.09567032507741235 0.4355151996776715 0  0.05746843722344426 0.5194633991763268 0  -0.436019945709395 -0.2881300360956253 0  -0.07596061144871569 0.6983647226519493 0  -0.6275255320060281 -0.2275110374504959 0  -0.5226873339000571 -0.469341295132707 0  -0.1125799974105092 -0.3851292258287221 0  0.619011024823678 0.6063877701182406 0  -0.2763102364367199 0.8192202812544818 0  0.7745348125424459 -0.3258032396315157 0  -0.518060795045081 0.4596654131466001 0  0.6694847456509949 0.1140659043624926 0  -0.4164279919677704 -0.08967120904698817 0  -0.3237023997545292 -0.8247802633914654 0  0.8468194484731224 -0.0896151494438422 0  0.4258293249936974 0.7649442768810276 0  -0.4452381011188446 0.304057250497095 0  -0.1429733645462529 -0.705840003340848 0  0.6708719183416081 -0.5559925608496961 0  -0.3198578181913611 -0.3250798040022018 0  0.4976994035910101 -0.722786655132186 0  0.3915320294649418 -0.7878115305337891 0  0.3013332399688708 -0.585568912488973 0  -0.05021176719619284 -0.1065627974183157 0  -0.5778499190094819 -0.08523074965409963 0  -0.4069729011762343 0.07227633527667994 0  0.1017761104609 -0.4710042480313572 0  0.8313172614604811 0.2723171946851911 0  -0.06237900155959543 0.3161471027625475 0  0.7228946573831219 -0.1512956814359499 0  0.6036725534446189 -0.345871914207299 0  0.1705451400955359 0.08284736515785829 0  -0.3661633096233823 -0.6724877309579722 0  -0.7432283975853058 0.454177419441099 0  -0.7886115584549602 -0.4294549654143447 0  0.210520553651675 0.8682430176792441 0  0.1024345016269031 -0.2481784681422972 0  -0.8322817485593992 -0.1101956133222516 0  -0.477755773363484 0.6903516518401452 0  0.03638745749539424 0.2677067415209754 0  0.005824306220235123 -0.3559598780800155 0  -0.02393057554055716 -0.5773091896046807 0  -0.656853418329663 0.3875346040967115 0  0.2023789243848113 0.6558288354998336 0  -0.5778499190094819 0.08335021638867035 0  0.8934476994401067 0.1341710538308732 0  0.3910989747205646 -0.1850985530637385 0  0.2900570811000597 0.5137964995259913 0  0.452764781948902 0.4354733387228008 0  0.4254647729341454 -0.4009256457985336 0  0.07502847893507417 -0.7203260015172291 0  0.2868290874409293 -0.7087819889995405 0  0.1884682971157424 -0.5957245682636509 0  0.7140991219034133 0.2413235030500445 0  0.1696702818122023 -0.8041727389113376 0  -0.03976182458011464 0.09606993450337703 0  -0.144895576760654 0.1537255187907586 0  -0.0679575666902707 -0.9068307063252722 0  -0.6878282916538929 0.2367020581784782 0  0.2741614604364078 -0.001581553459900201 0  0.2887101103557479 -0.2647410788026469 0  -0.6958459635813904 -0.5838840913973433 0  0.4522629467729725 -0.586590978490136 0  -0.06798126544149206 0.9071469441830431 0  -0.2251516232954611 -0.8119800599910756 0  0.7531456777622132 0.06094452615252965 0  0.5941459501568455 -0.1872721025851182 0  -0.216657295148843 -0.6276165006205845 0  -0.228089505904504 -0.1874590519798677 0  -0.26831543489379 -0.09525095123827111 0  -0.1134800437664088 -0.1811377597871832 0  -0.3760665750606548 0.5157676543792213 0  -0.1992448771787426 0.6064188495583912 0  -0.5683961947462335 -0.7122395910944973 0  -0.3431915831704673 0.186560664
[...]
<PointData  Scalars="f_228"> 
<DataArray  type="Float64"  Name="f_228"  format="ascii">1.0500000000000000e+00  1.0500000000000000e+00  1.0499999999999998e+00  1.0500000000000000e+00  1.0500000000000000e+00  1.0500000000000000e+00  1.0500000000000000e+00  1.0499999999999998e+00  1.0500000000000000e+00  1.0500000000000003e+00  1.0499999999999998e+00  1.0500000000000000e+00  1.0500000000000000e+00  1.0500000000000000e+00  1.0500000000000003e+00  1.0500000000000000e+00  1.0500000000000000e+00  1.0500000000000000e+00  1.0500000000000000e+00  1.0499999999999998e+00  1.0500000000000000e+00  1.0500000000000000e+00  1.0500000000000000e+00  1.0500000000000000e+00  1.0500000000000000e+00  1.0500000000000000e+00  1.0500000000000000e+00  1.0500000000000000e+00  1.0500000000000000e+00  1.0500000000000000e+00  1.0500000000000000e+00  1.0499999999999998e+00  1.0500000000000000e+00  1.0500000000000000e+00  1.0500000000000000e+00  1.0499999999999998e+00  1.0500000000000000e+00  1.0500000000000000e+00  1.0500000000000000e+00  1.0499999999999998e+00  1.0500000000000000e+00  1.0500000000000000e+00  1.0500000000000000e+00  1.0500000000000000e+00  1.0499999999999998e+00  1.0499999999999998e+00  1.0499999999999998e+00  1.0500000000000000e+00  1.0499999999999998e+00  1.0500000000000000e+00  1.0500000000000000e+00  1.0500000000000000e+00  1.0500000000000000e+00  1.0499999999999998e+00  1.0499999999999998e+00  1.0500000000000000e+00  1.0500000000000000e+00  1.0500000000000000e+00  1.0500000000000000e+00  1.0499999999999998e+00  1.0499999999999998e+00  1.0499999999999998e+00  1.0500000000000000e+00  4.4586976583522014e-01  6.6928068688531306e-01  6.6917806339429309e-01  6.6925743740734078e-01  6.6921627053810273e-01  6.6917431695603202e-01  7.0750321145153006e-01  7.9256814703438205e-01  8.0517872180272476e-01  8.0516294479186523e-01  8.0517288530144759e-01  8.3473111003648548e-01  8.3474339820898213e-01  5.3098995011143957e-01  5.2476550015168522e-01  8.7585350612374868e-01  8.8087644643188490e-01  5.8533057713260472e-01  5.2575138972804480e-01  5.8527733070625265e-01  8.8172790243408083e-01  8.8170765332749945e-01  8.8169743013245439e-01  8.8172919395593063e-01  8.8167051920422645e-01  8.8171369326827465e-01  5.0908360507713957e-01  9.0953400117289118e-01  8.6300124313754523e-01  9.0472336067638282e-01  6.4398465601583732e-01  8.6792893718781472e-01  6.5738823646612699e-01  4.8555521443425953e-01  4.8155682954207918e-01  5.1413537294462808e-01  9.4700314580490830e-01  9.3657172520601084e-01  7.2992575074754273e-01  7.2111822851577212e-01  6.5171560217670821e-01  9.4569429952934136e-01  9.4572625626540929e-01  9.5654782561994589e-01  9.4572582688556439e-01  9.5215646761251904e-01  9.5783252505937699e-01  5.4202354161045951e-01  6.9800994439843578e-01  7.3582177666769544e-01  7.3582525572337831e-01  7.3586240199467845e-01  7.3583734061204720e-01  5.7672051974330962e-01  6.4579770180908325e-01  9.1936608620047278e-01  9.5954961767840452e-01  9.5958175259107603e-01  9.5033476193636945e-01  9.5395225171706854e-01  9.5806713136114008e-01  9.5982537696163484e-01  4.7502680401571673e-01  5.5120775908225550e-01  8.1069603686388958e-01  9.7196764127758983e-01  7.8847905098919258e-01  7.4280283597492358e-01  5.5497627354984602e-01  5.8234762499162118e-01  7.4700062217482943e-01  9.7860487400101237e-01  9.7961624075022780e-01  4.6711202093484699e-01  4.6901745438160519e-01  7.4497189898125182e-01  5.6154142352101311e-01  9.7607547672692641e-01  7.7529647030212889e-01  9.8271370032524841e-01  6.1659159226237603e-01  6.1086601089412507e-01  8.0184509085521183e-01  8.0607811861111389e-01  8.0607127228847320e-01  6.2578497373735209e-01  4.6320969160179476e-01  8.3468012460255303e-01  9.8173819054732325e-01  9.7883253629264144e-01  9.8218631946434176e-01  9.8218267821138250e-01  9.8894669920307898e-01  9.8122863997102827e-01  7.7341021517514119e-01  5.9202733669478858e-01  6.2559799903569446e-01  6.8772108861820935e-01  6.8769311234572350e-01  8.4940837946649361e-01  8.1747717407419251e-01  8.4943239281735405e-01  5.9281595604761528e-01  9.8446110294517264e-01  9.8308401801960166e-01  9.6574267453254781e-01  8.4043146673040681e-01  8.2811433666332190e-01  6.1064480602779847e-01  9.9727543479156588e-01  9.7395026112065508e-01  9.9043857127279533e-01  7.0182264962777452e-01  8.6541443515082495e-01  9.8774308191121396e-01  6.3335951639680099e-01  9.9182653517433206e-01  9.9328740327948051e-01  8.0926664995915165e-01  4.5894121561483225e-01  7.4139653768870462e-01  6.0138023933135332e-01  6.5382121451049779e-01  9.8997063365676174e-01  5.4195743581493627e-01  8.8183619073462038e-01  8.4329202292115102e-01  4.7958248471549486e-01  9.0556255381257600e-01  9.8750427113306494e-01  1.0046959520845922e+00  1.0019130306310957e+00  5.1301376146513167e-01  9.6518292272743245e-01  9.6520734696927923e-01  5.1377907119475164e-01  5.6244150831056872e-01  7.3582841433426327e-01  9.0290209585089642e-01  8.3473354935499766e-01  7.4122196164824772e-01  1.0078972796413126e+00  6.1561896671201655e-01  7.4678329850699521e-01  7.8144103415932120e-01  7.4189080518903250e-01  8.6902746217215965e-01  9.0461519924747902e-01  7.7832651102597472e-01  8.9521131617944372e-01  9.5172598766390726e-01  4.5613575994510236e-01  4.8774716658017575e-01  1.0112617457799831e+00  8.7191615924730403e-01  5.1583380732573370e-01  5.8612653073104903e-01  1.0107412756521283e+00  8.8374102553350586e-01  1.0114879440348614e+00  9.6741249279835551e-01  8.9678399337744763e-01  7.7664864472310280e-01  8.1421687174774215e-01  5.2676795231601981e-01  5.2120216208084436e-01  4.8861009264147831e-01  7.9070342425399498e-01  7.9066269541428957e-01  1.0123836999463161e+00  5.8538341616674039e-01  1.0060141518640564e+00  9.4873069196766358e-01  1.0073105571943133e+00  1.0018524828980140e+00  1.0072736920396512e+00  5.1507790500109396e-01  1.0147073339917176e+00  4.8911848673033104e-01  7.0522368816249859e-01  1.0091366510171058e+00  6.6019871195850643e-01  1.0057725436093286e+00  4.5448402130498577e-01  9.1185314820471164e-01  8.7022208611520069e-01  9.1412711695378179e-01  1.0084936674601801e+00  1.0141053286628323e+00  6.3136488175332794e-01  6.6152253474437483e-01  7.9241962860359594e-01  6.3887125107500220e-01  6.6090545001226486e-01  9.1641523801269953e-01  1.0122349263664618e+00  1.0090079530483262e+00  1.0179347326166119e+00  7.4991600306604711e-01  8.0244756810988027e-01  6.9732176478705976e-01  6.6602146012354591e-01  7.3671465321193830e-01  7.5839856859258359e-01  9.2024692638541772e-01  8.8529299111010351e-01  1.0158582446030924e+00  4.5733037231890195e-01  1.0172798714689213e+00  7.4045914403438884e-01  1.0125763444558740e+00  9.3726395144959473e-01  5.4307692308065691e-01  8.7675533860989185e-01  9.3505733009867209e-01  9.0402882332377943e-01  8.7950683764081083e-01  1.0068157639335009e+00  4.5331521501194588e-01  5.7707050384442982e-01  1.0199218566842476e+00  1.0106662191864872e+00  1.0195702922447560e+00  8.8727937806349033e-01  8.7680441270957687e-01  8.8728932886603384e-01  8.7680913193774812e-01  9.4419154726083465e-01  4.8323548724847787e-01  8.9698815569347834e-01  1.0112517651169683e+00  1.0188841649938249e+00  7.5572589191369988e-01  6.3155594316924546e-01  7.1284853807298376e-01  7.7571638699392120e-01  6.4187571026999646e-01  7.7689664130847436e-01  6.8760307594520975e-01  7.7569479429090193e-01  1.0184336750797234e+00  1.0184292452778070e+00  5.6065731664765839e-01  5.6207338440249932e-01  6.3664603997416247e-01  9.5412257513089449e-01  1.0197018179006232e+00  5.1322142070733023e-01  4.9817033738448635e-01  8.3818284153116118e-01  9.0743321071100391e-01  1.0214815210617316e+00  7.6936113744538925e-01  6.7058101075323262e-01  7.6458640527982491e-01  9.5261762328788469e-01  1.0141955631445909e+00  5.5865780803016429e-01  1.0154313788296954e+00  1.0222802696645370e+00  1.0122547365346350e+00  7.1625992684129391e-01  6.6332044882811336e-01  6.0047201098885217e-01  6.7568757802259427e-01  8.5481511616934225e-01  8.7604157524913906e-01  9.4736488077759951e-01  8.0407352869193160e-01  9.0683877636673282e-01  8.5155855202541042e-01  1.0192733005096550e+00  9.1054878600910294e-01  1.0238844336423520e+00  7.3798515747417415e-01  1.0146441736969598e+00  9.1046606905072791e-01  7.1910838864434379e-01  1.0241840256423298e+00  6.0544778735216875e-01  7.3679904904041060e-01  1.0132690711488317e+00  5.8102260088559521e-01  6.0597098956380402e-01  6.7376001584669465e-01  8.4925661810462150e-01  5.5443003901350296e-01  1.0253268241900246e+00  9.0153886164350683e-01  5.1623138520152623e-01  6.1127242921756120e-01  5.2540174795392214e-01  1.0251817102847502e+00  1.0148873866969368e+00  8.1553321149040847e-01  9.6416735502711337e-01  9.1707319111109997e-01  1.0213769988604704e+00  8.1320610701058282e-01  4.9135850167506917e-01  7.8812145514522480e-01  5.7697649173763621e-01  6.1978002746019245e-01  5.2385823989781644e-01  8.0713161798532385e-01  8.8556989618475401e-01  6.7913208768562972e-01  7.0586677915852669e-01  1.0189170419534390e+00  7.3586331906352709e-01  8.0598945651702203e-01  8.0479532635568929e-01  5.6316265520894937e-01  7.1061634542143581e-01  4.8559470557138112e-01  5.4392888311630050e-01  8.4867340357070153e-01  6.4056773549455293e-01  6.7571633601745729e-01  9.5050220070512348e-01  7.8619160066272331e-01  8.0764737984752921e-01  6.9376404473492559e-01  8.5245772967327327e-01  8.5962908494143131e-01  1.0222303724516979e+00  8.3691301003171747e-01  5.9981609921925272e-01  1.0224533446953992e+00  1.0228993980326420e+00  9.4924597130646771e-01  4.8724991793971123e-01  5.6833581124721599e-01  9.6259306120582888e-01  8.1451660890291944e-01  7.0948931159340112e-01  8.2860001982564813e-01  8.3151750606201980e-01  9.2572700482380688e-01  1.0171586307985117e+00  9.2897078787275233e-01  5.8918090909888876e-01  1.0291599581228847e+00  9.4419642248639923e-01  9.4847306398407738e-01  1.0201032008678008e+00  1.0077512116960408e+00  4.5093419644082222e-01  5.6707615096063246e-01  6.3896386361764623e-01  5.8243562684718642e-01  8.0368372244771202e-01  7.0380776230061193e-01  8.2739282516572010e-01  6.9473512326608922e-01  9.2793670238390369e-01  5.3919094657787925e-01  8.8971401860982369e-01  5.4948750014668646e-01  1.0233870327053103e+00  1.0242977973636884e+00  1.0303040188008059e+00  9.4567552004612088e-01  4.7772855595240810e-01  9.1008648815730819e-01  9.3073705719621891e-01  9.5306681563611972e-01  9.4620048761927178e-01  8.9409740186827602e-01  1.0283058309758653e+00  1.0241990172222337e+00  7.5893861622129588e-01  7.6160949312948500e-01  9.1830689886491190e-01  9.5664005193112223e-01  7.1931186408761649e-01  9.6401581554185689e-01  9.3569742333944905e-01  9.3498750687564236e-01  4.7199656480776458e-01  4.5021554674766351e-01  5.4863282122388024e-01  9.6432899287116769e-01  8.9818850214424328e-01  1.0475153876827006e+00  1.0235354897739160e+00  9.7020308447814596e-01  1.0246047790475621e+00  9.8013721673901877e-01  1.0248535515454864e+00  1.0212576967320297e+00  7.4215961364814287e-01  8.8012641465646724e-01  8.0445824002483246e-01  9.9318760089964642e-01  6.1607287487994677e-01  9.1273399883373574e-01  9.0728779824851924e-01  6.6200298382690348e-01  1.0475153876827008e+00  8.1829589699759475e-01  8.4475552285216227e-01  4.8787641774994950e-01  9.5270813554852707e-01  7.2082685546481229e-01  8.5791022697395536e-01  7.4396199270362451e-01  5.9569067484800287e-01  6.7708742455906556e-01  6.3081551450327156e-01  7.1687362312173553e-01  6.8183830843585813e-01  6.3174642482377719e-01  6.8571392503473838e-01  4.8983700167957550e-01  1.0475153876827008e+00  1.0289599708871433e+00  7.3999499424806792e-01  9.4277940342979027e-01  9.3915877890944433e-01  1.0475153876827008e+00  1.0243547957652515e+00  5.8243193278913430e-01  6.1688936706924447e-01  5.7009338551860145e-01  6.0226434480322344e-01  4.5473783035429022e-01  9.6977674670776604e-01  1.0475153876827008e+00  1.0231089948516117e+00  9.7397814445853126e-01  6.8250925359621828e-01  1.0266399749314594e+00  6.8751607356653333e-01  8.6267234502767864e-01  9.7758823786244775e-01  5.9638950912519317e-01  9.9182085818077848e-01  6.7788237208212165e-01  8.3246249909406300e-01  1.0293336127983190e+00  5.1917075640862687e-01  9.2127221447946128e-01  7.2727499570219556e-01  5.4527183791171507e-01  6.8156522920702689e-01  7.1726941757375273e-01  9.6936077957170186e-01  8.7582857056903962e-01  8.1272617512010403e-01  6.3306644042132554e-01  7.4975867535938490e-01  9.5765301525190805e-01  9.7981361251399990e-01  7.7490183004427637e-01  6.7719358820522968e-01  8.4141996570405631e-01  5.1258717505068729e-01  9.6661058972504499e-01  8.2380353933556250e-01  9.7781214006858241e-01  1.0475153876827006e+00  7.7581615222270861e-01  1.0475153876827006e+00  9.1764637950160843e-01  8.6952292464558789e-01  6.5546118900269068e-01  1.0475153876827006e+00  6.2970204880435332e-01  1.0265988117315479e+00  9.5264758715255315e-01  9.4498313358726194e-01  5.7470914967770659e-01  9.0383399451686808e-01  8.2938383944128413e-01  6.8645406395131336e-01  5.0025119440886268e-01  8.6171134331435928e-01  9.8605601343087979e-01  9.8326286062484070e-01  1.0242495650537566e+00  8.9485115404644600e-01  7.9595143014548408e-01  6.2638935314104793e-01  5.4597305424089160e-01  1.0258339283502227e+00  5.1374101230492875e-01  9.8275308556954721e-01  1.0475153876827006e+00  8.5911628350514269e-01  9.7480766679745567e-01  1.0276134493150904e+00  8.3800010019177862e-01  7.8952448936782837e-01  5.4037300087721296e-01  9.1663722207295639e-01  9.1243854776447575e-01  9.3470550261244545e-01  4.7174055195475056e-01  4.6776269323287128e-01  9.3304500742053176e-01  1.0267727695371882e+00  8.2845173384366155e-01  9.9027209703742980e-01  7.5310960322857046e-01  6.8277829069938201e-01  9.8745304819390334e-01  5.6375492627433266e-01  6.3442460218535468e-01  6.2974964611230988e-01  8.4970522909436708e-01  9.1583595031627230e-01  1.0475153876827006e+00  7.5574059887836753e-01  4.4957866080637510e-01  4.6527989184128343e-01  8.2273260128284775e-01  7.2018603982454132e-01  1.0320596908904356e+00  7.8495507056130587e-01  5.1052611194317954e-01  8.6086115264936958e-01  8.9539565549129496e-01  7.5730698598669888e-01  1.0010577728054202e+00  1.0475153876827008e+00  1.0272890854322230e+00  9.9368386216902149e-01  4.9653564425389102e-01  8.2546065354119691e-01  9.8832197950956013e-01  5.1533050040752659e-01  4.6771357170420108e-01  5.0419821699646017e-01  7.0755548038708393e-01  1.0475153876827008e+00  7.3812963544535204e-01  6.2484397263312852e-01  9.5930435452150442e-01  9.8817882954526759e-01  6.5275589736835571e-01  6.4168740509433297e-01  9.1115935558432548e-01  9.5266620406258340e-01  5.2241114150980072e-01  8.5795991339848343e-01  1.0186798883390635e+00  7.2176871600606962e-01  6.9845930996385563e-01  7.1830299505641526e-01  7.7785237730218193e-01  6.1530514382111057e-01  6.0186134194065932e-01  9.0668579610649858e-01  6.3934126616348952e-01  6.9984351763144814e-01  6.1129356145365166e-01  6.3414980688305977e-01  5.4405925575376635e-01  1.0256459696086249e+00  8.8538945646942224e-01  6.6425512676923182e-01  8.7921331452864160e-01  6.3687005819873599e-01  8.5198510478434009e-01  7.8836406996541697e-01  8.1920978825890456e-01  1.0222305283273807e+00  7.0072196370050388e-01  1.0145433193264404e+00  4.6205881590109271e-01  1.0314031087476814e+00  8.4286827207409609e-01  1.0272198105037731e+00  1.0313515544057319e+00  9.1950431739434613e-01  9.0469535361006159e-01  7.2850967733381011e-01  1.0475153876827006e+00  1.0283444085223850e+00  8.0308887902858117e-01  6.4159916509181814e-01  5.8209998435765886e-01  1.0475153876827006e+00  6.9030923758726503e-01  9.1597220296885185e-01  9.3558173332257166e-01  9.1595070387591915e-01  9.3556667475496857e-01  1.0270163871594864e+00  1.0291171321747996e+00  9.9578989486543024e-01  9.9068077977630520e-01  1.0309965368220790e+00  1.0272979569952394e+00  7.8286935727741103e-01  9.2572794604476649e-01  9.1295546548071849e-01  7.9500878653715046e-01  5.4326028385207847e-01  5.2702940867824455e-01  7.8271110043617043e-01  5.4586416407638250e-01  1.0262558957265917e+00  4.7231833707050441e-01  4.6564203047354280e-01  5.9030614969925177e-01  4.9907871365418671e-01  8.6306268970908739e-01  7.8728601537700726e-01  9.7455010149567145e-01  9.8756395068357838e-01  4.9225176750447142e-01  9.8130751711409081e-01  9.7581694007702890e-01  9.9690382073601758e-01  1.0475153876827006e+00  1.0300862661005192e+00  9.9603122458800331e-01  9.7163441389640948e-01  7.3292466167059556e-01  7.7467696324204349e-01  8.5696043803338562e-01  9.4823243892325593e-01  5.9226221938210277e-01  7.8499113381584351e-01  8.7509845551883381e-01  4.8653743996778848e-01  8.3077322379287033e-01  8.0076295778862616e-01  7.5138735711979587e-01  1.0288622028129626e+00  9.7671351182228061e-01  1.0475153876827008e+00  1.0301483792156945e+00  5.1129580796889429e-01  9.1311556305554908e-01  1.0304326915248372e+00  9.9522247074390424e-01  5.5332639440886100e-01  7.5307884721298757e-01  7.7648651903071408e-01  7.1673105859392383e-01  9.7371487429095405e-01  9.9114679628609847e-01  8.6150479588641371e-01  8.8417568836953842e-01  8.5590957928252276e-01  7.0899780417812297e-01  8.8321018546037144e-01  9.8870736318816377e-01  1.0308625682218004e+00  9.7857276925509662e-01  4.6297969689812374e-01  9.7637585812331629e-01  5.4108364662612263e-01  4.7228577132271660e-01  9.3959032745177973e-01  8.7638282240947285e-01  9.1688672473251986e-01  6.4404806590855945e-01  5.2616382543961204e-01  4.7634719380910934e-01  7.7638044395486383e-01  6.9906131976385266e-01  4.9204832843566243e-01  8.2989696583940031e-01  6.1936288606476464e-01  5.0317739170124709e-01  1.0295158637360329e+00  5.2472659863469995e-01  8.3680655491492906e-01  8.2253043544091109e-01  7.5092022552294746e-01  7.3953108033857984e-01  8.6462077635967161e-01  9.1174033638211172e-01  9.6347926101533987e-01  1.0329922078988627e+00  9.4427144995047085e-01  9.9278664367404124e-01  1.0302581126283914e+00  1.0475153876827006e+00  7.3937342551658725e-01  6.6771874783009555e-01  1.0475153876827006e+00  6.1909093986889330e-01  6.7818250489613074e-01  6.0023211700449575e-01  6.5503168063026507e-01  8.1710518195168313e-01  4.5831610757756819e-01  1.0302558751886530e+00  9.9127684841964270e-01  7.0725121510216260e-01  9.8501587540221824e-01  9.9148408471336913e-01  8.4066541200307321e-01  1.0328782824053953e+00  9.9398184725498562e-01  1.0291983510738911e+00  1.0320222093916971e+00  5.7553992398990927e-01  4.4845848764480972e-01  9.6129491393520317e-01  5.6484268666652249e-01  9.7544909202375540e-01  1.0283481987232670e+00  1.0475153876827006e+00  1.0475153876827006e+00  7.6606193628300512e-01  7.8505174929475896e-01  7.6707026740394335e-01  5.3155043408544556e-01  5.5905503005069257e-01  9.6053744105712391e-01  7.4340290228346884e-01  1.0475153876827006e+00  1.0298579595077413e+00  1.0475153876827008e+00  9.8581804840095200e-01  5.5650724612142954e-01  5.8880607837545784e-01  7.8930850844711176e-01  6.5195856428474463e-01  8.1947977893117685e-01  7.6477938062140538e-01  7.5122981871898831e-01  5.8232900144488620e-01  1.0309465435620495e+00  5.9132114313445872e-01  1.0323198011975763e+00  7.1121546843923011e-01  9.9317062771877418e-01  9.7398311696869422e-01  6.2000203341971949e-01  8.1364849023819319e-01  7.7400721338614409e-01  7.8594579784318219e-01  7.4898762493311810e-01  1.0475153876827008e+00  6.0005950836553046e-01  1.0323916354987630e+00  9.8279502983845179e-01  9.1833384235853233e-01  1.0475153876827006e+00  1.0475153876827010e+00  1.0338610959753809e+00  9.9887854366820850e-01  1.0302483806751157e+00  1.0475153876827006e+00  1.0316637808632456e+00  1.0310017958173039e+00  4.9033962636416034e-01  1.0475153876827006e+00  5.4201540159317441e-01  9.9818614172017106e-01  9.9956344496262117e-01  6.7038678125491591e-01  7.0831478680775573e-01  6.7453312744114935e-01  8.4917605799187479e-01  9.5709286481171629e-01  8.7234226717309638e-01  8.4792309061624271e-01  6.3960870752441068e-01  7.782164029632390