<?xml version="1.0"?>
<VTKFile type="UnstructuredGrid"  version="0.1"  >
<UnstructuredGrid>
<Piece  NumberOfPoints="8165" NumberOfCells="16057">
<Points>
<DataArray  type="Float64"  NumberOfComponents="3"  format="ascii">-0.9987569212189223 0.04984588566069748 0  -0.9987569212189223 -0.04984588566069723 0  -0.9888308262251285 -0.1490422661761745 0  -0.969077286229078 -0.2467573976902936 0  -0.9396926207859084 -0.3420201433256687 0  -0.9009688679024191 -0.433883739117558 0  -0.8532908816321557 -0.5214352033794979 0  -0.7971325072229226 -0.6038044103254772 0  -0.7330518718298266 -0.6801727377709191 0  -0.6616858375968597 -0.749781202967734 0  -0.5837436722347905 -0.8119380057158559 0  -0.4999999999999996 -0.8660254037844388 0  -0.4112871031306116 -0.9115058523116731 0  -0.318486650251685 -0.9479273461671316 0  -0.2225209339563146 -0.9749279121818236 0  -0.1243437046474858 -0.992239206600172 0  -0.02493069173807316 -0.9996891820008162 0  0.07473009358642436 -0.9972037971811801 0  0.17364817766693 -0.9848077530122081 0  0.2708404681430051 -0.962624246950012 0  0.3653410243663945 -0.9308737486442045 0  0.4562106573531629 -0.8898718088114687 0  0.5425462638657597 -0.8400259231507713 0  0.6234898018587334 -0.7818314824680299 0  0.698236818086073 -0.7158668492597183 0  0.7660444431189778 -0.6427876096865396 0  0.8262387743159945 -0.5633200580636227 0  0.8782215733702283 -0.4782539786213186 0  0.9214762118704076 -0.3884347962746947 0  0.9555728057861406 -0.2947551744109047 0  0.9801724878485438 -0.1981461431993977 0  0.9950307753654013 -0.09956784659581729 0  1 0 0  0.9950307753654014 0.09956784659581666 0  0.9801724878485438 0.1981461431993976 0  0.9555728057861407 0.2947551744109042 0  0.9214762118704076 0.3884347962746947 0  0.8782215733702285 0.4782539786213182 0  0.8262387743159949 0.5633200580636221 0  0.766044443118978 0.6427876096865393 0  0.6982368180860729 0.7158668492597184 0  0.6234898018587336 0.7818314824680298 0  0.5425462638657594 0.8400259231507714 0  0.4562106573531631 0.8898718088114685 0  0.365341024366395 0.9308737486442042 0  0.2708404681430052 0.962624246950012 0  0.1736481776669304 0.984807753012208 0  0.07473009358642439 0.9972037971811801 0  -0.02493069173807291 0.9996891820008162 0  -0.1243437046474852 0.9922392066001721 0  -0.2225209339563143 0.9749279121818236 0  -0.3184866502516843 0.9479273461671318 0  -0.4112871031306114 0.9115058523116732 0  -0.5000000000000002 0.8660254037844385 0  -0.5837436722347896 0.8119380057158566 0  -0.6616858375968592 0.7497812029677344 0  -0.7330518718298263 0.6801727377709194 0  -0.7971325072229225 0.6038044103254774 0  -0.8532908816321556 0.5214352033794981 0  -0.900968867902419 0.4338837391175582 0  -0.9396926207859083 0.3420201433256689 0  -0.9690772862290778 0.2467573976902938 0  -0.9888308262251285 0.1490422661761747 0  0 -3.33066907387547e-16 0  0.2922351073784631 0.4064742824134499 0  -0.2283892344877995 0.445489683178082 0  -0.5006223129745928 1.249000902703301e-16 0  0.4851417124831425 -0.1235322591753062 0  -0.2283892344877995 -0.4454896831780823 0  0.2244381293544702 -0.4974059892257727 0  0.6017400542999141 0.2190154685308969 0  -0.5581446696297816 -0.3410751076665679 0  0.04888157636984874 0.6522793058172992 0  -0.5581446696297816 0.341075107666568 0  0.5318003682503499 -0.4338991867093802 0  -0.02655531792237059 -0.6858388666358241 0  0.2846822903539273 0.1036158799115578 0  0.2057127456600814 -0.2065170392348358 0  0.5499950705631735 0.4828159805817372 0  0.7365712010015821 -0.03676074036240858 0  -0.3332123644358574 -0.2036218372401125 0  -0.2503111564872963 0.1529619636172051 0  0.02918230080088918 0.3894107416776539 0  0.3119038197247055 0.6693125881472082 0  -0.4533085568472715 0.5829019520470146 0  -0.2086642468434529 0.7083237716612585 0  -0.4533085568472716 -0.5829019520470144 0  -0.7255122091309201 -0.1374604227155882 0  -0.7255122091309201 0.1374604227155883 0  -0.05009008488438581 -0.2556093177500643 0  0.3851790873862939 -0.6671497493660733 0  0.6709552008695683 -0.254288853195751 0  -0.2603565207201746 -0.7190461267637986 0  -0.01274908188504958 -0.4693251432427898 0  0.180383544466418 -0.7001037260965679 0  0.3847163576179377 -0.2973202411100294 0  -0.04995432007195971 0.1995423851608914 0  -0.1678190342621316 -0.0998261742388182 0  0.1403205714878223 0.2316624653136229 0  0.7349932089154046 0.3539540744095583 0  0.7879319621210741 0.1537397135554779 0  0.5698193606007648 0.03876274873020472 0  0.4558478162384035 0.3273736178084163 0  -0.4419539887971066 0.1852825496193718 0  -0.7464085988633791 -0.3252307397060302 0  -0.7464085988633791 0.3252307397060303 0  0.02064469536321903 0.827826152484757 0  -0.6299332241648122 0.5158342404302462 0  -0.6649689944704764 -0.4839644683910337 0  0.70800971084343 -0.4326557279765403 0  -0.3223706017906134 -0.01040698776897026 0  -0.5054246806996193 -0.1745782100334494 0  -0.4005901524784139 -0.416410058674076 0  -0.1042571859310078 0.5683311063186439 0  -0.4005901524784139 0.4164100586740762 0  0.1877980753282089 0.5464445901741976 0  0.1206822009066526 -0.3580378865832485 0  0.4460042554300219 0.1536417414647964 0  0.1738116160219865 0.7624188124093614 0  -0.8321051542296078 6.938893903907228e-17 0  -0.3796152393980441 0.7404669187156475 0  0.4930547478800816 0.6553511379173387 0  0.5542774023972679 -0.610736590905896 0  0.06765100167578174 -0.8273503122395667 0  -0.1263627236672069 -0.8227899655417861 0  0.1732568394682733 -0.03313223201635654 0  0.3244981183472287 -0.0945514879573747 0  0.3964818767539355 0.5278166619520006 0  0.8225174138930775 -0.2094386686091706 0  0.3862762456383678 -0.5051310802049933 0  -0.1330531929054866 -0.5703508657222929 0  -0.177647535364107 0.2946018482597728 0  0.2899951183081392 0.2550067652537422 0  0.08441079514704673 -0.5842176964322349 0  -0.1490115292621843 0.8450863768180583 0  0.2737504708168863 -0.814776874033456 0  -0.142353501387633 0.04833782824577596 0  0.06123953108016653 -0.1447132819643286 0  0.5259110046002531 -0.2630012123273205 0  -0.2028836910358441 -0.2907872567933579 0  0.6961680963734469 0.4954410198387236 0  -0.5896348602892731 0.1963655996997491 0  -0.4687501505461277 -0.7257671910482482 0  -0.3280940097505531 0.2841706514959641 0  0.4262046142439533 0.009495858005196894 0  -0.3034808298607995 -0.575360661977006 0  -0.655077525044371 5.551115123125783e-17 0  -0.2988533483177751 0.5829350221229744 0  0.2606280324088774 -0.3621577007324048 0  0.06109885742534778 0.1213198421233271 0  0.5883360859796991 0.3533614497113013 0  0.3043653793591053 0.8070919162104671 0  -0.5977628423620102 -0.6160630342157603 0  -0.5768580796341715 0.6421662051486873 0  -0.8346144062426474 -0.2203666761707024 0  -0.8558623315149202 0.173016302948436 0  0.8612845745432718 0.03178923580507788 0  0.6132723301615656 -0.08714674393221392 0  0.1628110939985944 0.3655319136460566 0  -0.09567032507741235 0.4355151996776715 0  0.05746843722344426 0.5194633991763268 0  -0.436019945709395 -0.2881300360956253 0  -0.07596061144871569 0.6983647226519493 0  -0.6275255320060281 -0.2275110374504959 0  -0.5226873339000571 -0.469341295132707 0  -0.1125799974105092 -0.3851292258287221 0  0.619011024823678 0.6063877701182406 0  -0.2763102364367199 0.8192202812544818 0  0.7745348125424459 -0.3258032396315157 0  -0.518060795045081 0.4596654131466001 0  0.6694847456509949 0.1140659043624926 0  -0.4164279919677704 -0.08967120904698817 0  -0.3237023997545292 -0.8247802633914654 0  0.8468194484731224 -0.0896151494438422 0  0.4258293249936974 0.7649442768810276 0  -0.4452381011188446 0.304057250497095 0  -0.1429733645462529 -0.705840003340848 0  0.6708719183416081 -0.5559925608496961 0  -0.3198578181913611 -0.3250798040022018 0  0.4976994035910101 -0.722786655132186 0  0.3915320294649418 -0.7878115305337891 0  0.3013332399688708 -0.585568912488973 0  -0.05021176719619284 -0.1065627974183157 0  -0.5778499190094819 -0.08523074965409963 0  -0.4069729011762343 0.07227633527667994 0  0.1017761104609 -0.4710042480313572 0  0.8313172614604811 0.2723171946851911 0  -0.06237900155959543 0.3161471027625475 0  0.7228946573831219 -0.1512956814359499 0  0.6036725534446189 -0.345871914207299 0  0.1705451400955359 0.08284736515785829 0  -0.3661633096233823 -0.6724877309579722 0  -0.7432283975853058 0.454177419441099 0  -0.7886115584549602 -0.4294549654143447 0  0.210520553651675 0.8682430176792441 0  0.1024345016269031 -0.2481784681422972 0  -0.8322817485593992 -0.1101956133222516 0  -0.477755773363484 0.6903516518401452 0  0.03638745749539424 0.2677067415209754 0  0.005824306220235123 -0.3559598780800155 0  -0.02393057554055716 -0.5773091896046807 0  -0.656853418329663 0.3875346040967115 0  0.2023789243848113 0.6558288354998336 0  -0.5778499190094819 0.08335021638867035 0  0.8934476994401067 0.1341710538308732 0  0.3910989747205646 -0.1850985530637385 0  0.2900570811000597 0.5137964995259913 0  0.452764781948902 0.4354733387228008 0  0.4254647729341454 -0.4009256457985336 0  0.07502847893507417 -0.7203260015172291 0  0.2868290874409293 -0.7087819889995405 0  0.1884682971157424 -0.5957245682636509 0  0.7140991219034133 0.2413235030500445 0  0.1696702818122023 -0.8041727389113376 0  -0.03976182458011464 0.09606993450337703 0  -0.144895576760654 0.1537255187907586 0  -0.0679575666902707 -0.9068307063252722 0  -0.6878282916538929 0.2367020581784782 0  0.2741614604364078 -0.001581553459900201 0  0.2887101103557479 -0.2647410788026469 0  -0.6958459635813904 -0.5838840913973433 0  0.4522629467729725 -0.586590978490136 0  -0.06798126544149206 0.9071469441830431 0  -0.2251516232954611 -0.8119800599910756 0  0.7531456777622132 0.06094452615252965 0  0.5941459501568455 -0.1872721025851182 0  -0.216657295148843 -0.6276165006205845 0  -0.228089505904504 -0.1874590519798677 0  -0.26831543489379 -0.09525095123827111 0  -0.1134800437664088 -0.1811377597871832 0  -0.3760665750606548 0.5157676543792213 0  -0.1992448771787426 0.6064188495583912 0  -0.5683961947462335 -0.7122395910944973 0  -0.3431915831704673 0.186560664
[...]
<PointData  Scalars="f_2780"> 
<DataArray  type="Float64"  Name="f_2780"  format="ascii">1.6300000000000003e+00  1.6300000000000003e+00  1.6300000000000003e+00  1.6300000000000003e+00  1.6300000000000003e+00  1.6300000000000003e+00  1.6300000000000003e+00  1.6300000000000003e+00  1.6300000000000003e+00  1.6300000000000006e+00  1.6300000000000001e+00  1.6300000000000003e+00  1.6300000000000003e+00  1.6300000000000003e+00  1.6300000000000006e+00  1.6300000000000003e+00  1.6300000000000003e+00  1.6300000000000003e+00  1.6300000000000003e+00  1.6300000000000003e+00  1.6300000000000003e+00  1.6300000000000001e+00  1.6300000000000003e+00  1.6300000000000003e+00  1.6300000000000003e+00  1.6300000000000003e+00  1.6300000000000003e+00  1.6300000000000006e+00  1.6300000000000003e+00  1.6300000000000003e+00  1.6300000000000003e+00  1.6300000000000003e+00  1.6300000000000003e+00  1.6300000000000003e+00  1.6300000000000003e+00  1.6300000000000003e+00  1.6300000000000003e+00  1.6300000000000003e+00  1.6300000000000003e+00  1.6300000000000003e+00  1.6300000000000003e+00  1.6300000000000003e+00  1.6300000000000003e+00  1.6300000000000003e+00  1.6300000000000003e+00  1.6300000000000003e+00  1.6300000000000003e+00  1.6300000000000003e+00  1.6300000000000003e+00  1.6300000000000003e+00  1.6300000000000003e+00  1.6300000000000003e+00  1.6300000000000001e+00  1.6300000000000003e+00  1.6300000000000003e+00  1.6300000000000003e+00  1.6300000000000003e+00  1.6300000000000001e+00  1.6300000000000003e+00  1.6300000000000003e+00  1.6300000000000003e+00  1.6300000000000003e+00  1.6300000000000003e+00  2.5631378947012458e+00  2.3335262517391011e+00  2.3336549624621696e+00  2.3335567805600816e+00  2.3336064753138626e+00  2.3336592889038235e+00  2.2900156991837939e+00  2.1856422947068261e+00  2.1690028485909112e+00  2.1690133366798623e+00  2.1690916895353176e+00  2.1286263256802513e+00  2.1285886541743970e+00  2.4795146217061204e+00  2.4857626153591657e+00  2.0681300832164276e+00  2.0604008803213465e+00  2.4239413008554545e+00  2.4847780034074165e+00  2.4240061176962429e+00  2.0590961059691537e+00  2.0589962677457501e+00  2.0590951468034664e+00  2.0590537010905763e+00  2.0590894293709932e+00  2.0591706778447523e+00  2.5013977923230510e+00  2.0136659321823371e+00  2.0876874040500595e+00  2.0218198041626039e+00  2.3614503885520510e+00  2.0802440685002681e+00  2.3467402171927709e+00  2.5246080505874211e+00  2.5285259340606321e+00  2.4963778440532249e+00  1.9457394005971298e+00  1.9656022900147712e+00  2.2635843671477680e+00  2.2740541744602605e+00  2.3530054792448811e+00  1.9481682774207729e+00  1.9481692332391944e+00  1.9266614964113988e+00  1.9482383423563554e+00  1.9354510632069897e+00  1.9239632126076303e+00  2.4683941674450915e+00  2.3009971682027586e+00  2.2565406849839351e+00  2.2565489675687616e+00  2.2564789120412740e+00  2.2565162971280981e+00  2.4328816357238710e+00  2.3594683934607059e+00  1.9966907689762985e+00  1.9202915584652418e+00  1.9202215160588942e+00  1.9389972450841921e+00  1.9317953633653644e+00  1.9233710974907228e+00  1.9197056816034066e+00  2.5349028297621636e+00  2.4590733236746138e+00  2.1616766571265607e+00  1.8937007706699895e+00  2.1909144508834095e+00  2.2481218004994625e+00  2.4552286228359170e+00  2.4270461456257886e+00  2.2429822838728861e+00  1.8785802562539409e+00  1.8762769792219254e+00  2.5426075938850849e+00  2.5407539369589172e+00  2.2454703521561483e+00  2.4485197170944386e+00  1.8845632089266473e+00  2.2078436693124313e+00  1.8690221364952244e+00  2.3910113960961215e+00  2.3970924378262515e+00  2.1734414519111191e+00  2.1678344407037140e+00  2.1678267829758120e+00  2.3811707699576128e+00  2.5463932261310958e+00  2.1286976647749225e+00  1.8712990918180592e+00  1.8781801729300724e+00  1.8702934406372851e+00  1.8702882431331542e+00  1.8538210883314696e+00  1.8724116536574671e+00  2.2102387830205528e+00  2.4169487549162816e+00  2.3813599335562263e+00  2.3127311198865041e+00  2.3127729879811905e+00  2.1076510821126586e+00  2.1525101382487066e+00  2.1076668123885742e+00  2.4161207688973523e+00  1.8647998739502616e+00  1.8680531767781707e+00  1.9073386964843198e+00  2.1205599653498979e+00  2.1378476886216329e+00  2.3973282066630106e+00  1.8323560118429036e+00  1.8892351478772929e+00  1.8500177350490583e+00  2.2965985830924680e+00  2.0840981773217111e+00  1.8569076884592437e+00  2.3730184132598993e+00  1.8465411969016243e+00  1.8428744564141453e+00  2.1635327157852533e+00  2.5505277506524968e+00  2.2498567531706337e+00  2.4071405489641049e+00  2.3506848335033963e+00  1.8510975871619437e+00  2.4684529050117319e+00  2.0588708898091386e+00  2.1165314597543734e+00  2.5304556681891288e+00  2.0204251201041963e+00  1.8574382523276352e+00  1.8121148467269510e+00  1.8198358706475974e+00  2.4974928868369513e+00  1.9085255624677289e+00  1.9084887070075067e+00  2.4967330942934685e+00  2.4475963407039258e+00  2.2565134338886730e+00  2.0248178969139046e+00  2.1286195785718625e+00  2.2500257580767515e+00  1.8025611460069721e+00  2.3920387682068580e+00  2.2432829285470568e+00  2.1999926116520516e+00  2.2492334809203487e+00  2.0785881634209300e+00  2.0220504678063094e+00  2.2039811301925876e+00  2.0374922875644290e+00  1.9362036861249630e+00  2.5532404943564404e+00  2.5224584207925500e+00  1.7923626404182909e+00  2.0742685346293865e+00  2.4946839471872195e+00  2.4231190219103547e+00  1.7941571322474001e+00  2.0558988796400302e+00  1.7918476337438283e+00  1.9035495673788283e+00  2.0349036594824486e+00  2.2061483403439692e+00  2.1569332127867757e+00  2.4837577198051686e+00  2.4893293408720529e+00  2.5216121575650257e+00  2.1880610554532800e+00  2.1881206075161344e+00  1.7892311082694417e+00  2.4238971146726711e+00  1.8082605585166180e+00  1.9421348429927199e+00  1.8046444005413427e+00  1.8199760977434158e+00  1.8045887922029333e+00  2.4954372956720641e+00  1.7819163854377655e+00  2.5211132990376490e+00  2.2926490687426200e+00  1.7988424462752559e+00  2.3436527986333613e+00  1.8089088855054793e+00  2.5548361726956266e+00  2.0098411350265977e+00  2.0767753070991350e+00  2.0058794475823731e+00  1.8009857553406519e+00  1.7839440615828084e+00  2.3751514272329488e+00  2.3421669936444651e+00  2.1858599251123203e+00  2.3670097456756225e+00  2.3428607452102228e+00  2.0019387941608460e+00  1.7894220052486813e+00  1.7993481161977167e+00  1.7712982322206672e+00  2.2394707394270870e+00  2.1726240180664345e+00  2.3017600349229710e+00  2.3371589320379917e+00  2.2554752191515965e+00  2.2290342408606940e+00  1.9952823274033384e+00  2.0534523258859378e+00  1.7781103692720368e+00  2.5520866589466187e+00  1.7735078632788905e+00  2.2509631314034708e+00  1.7885772240710467e+00  1.9642656629471449e+00  2.4673291430451640e+00  2.0667594685858259e+00  1.9683899367381159e+00  2.0229963668831217e+00  2.0625489130130727e+00  1.8058959997476840e+00  2.5559645055971458e+00  2.4325199464656895e+00  1.7644901054486537e+00  1.7946679700857260e+00  1.7660474146268224e+00  2.0502339619398318e+00  2.0667225287221154e+00  2.0502330175686652e+00  2.0667258723408737e+00  1.9510867030153627e+00  2.5268820170825332e+00  2.0346474479361447e+00  1.7927825173846794e+00  1.7682237598382284e+00  2.2323073667907498e+00  2.3749532776341375e+00  2.2837655295456250e+00  2.2073306288074379e+00  2.3637635959041079e+00  2.2058071976964571e+00  2.3128900970228301e+00  2.2073537819676448e+00  1.7695015095741629e+00  1.7697832007010812e+00  2.4494174416347940e+00  2.4479668151849836e+00  2.3694377481270994e+00  1.9314489516394775e+00  1.7654629200009175e+00  2.4972907328077616e+00  2.5122032226920199e+00  2.1237632276524567e+00  2.0172211898512389e+00  1.7591170894451160e+00  2.2153533388865836e+00  2.3320847430828726e+00  2.2213214832505193e+00  1.9344534162165221e+00  1.7834568871015686e+00  2.4514717374230788e+00  1.7794437629830848e+00  1.7562584671616637e+00  1.7896776949386737e+00  2.2797710924653023e+00  2.3401665809792775e+00  2.4080834775074074e+00  2.3263524873108699e+00  2.0998900002104985e+00  2.0679001117345859e+00  1.9449106316971623e+00  2.1705381707166294e+00  2.0183431568415302e+00  2.1046319692242106e+00  1.7667072653288853e+00  2.0120735088495088e+00  1.7507658255762177e+00  2.2539481931787653e+00  1.7819555398617737e+00  2.0121698350964845e+00  2.2764495124161139e+00  1.7494804979015361e+00  2.4028312885939136e+00  2.2553775312017987e+00  1.7862179757939738e+00  2.4284283625262431e+00  2.4022874830511616e+00  2.3285194238355693e+00  2.1079117256839206e+00  2.4557887289897886e+00  1.7450500040861889e+00  2.0271214557125714e+00  2.4942920269140183e+00  2.3966687837866587e+00  2.4851298025797357e+00  1.7457528566570928e+00  1.7814596415136621e+00  2.1551539517097993e+00  1.9106372979812987e+00  2.0007947335778358e+00  1.7598297032363355e+00  2.1582662551523044e+00  2.5189107468013172e+00  2.1913589748804374e+00  2.4326167187677887e+00  2.3875960621121037e+00  2.4866722270471220e+00  2.1664575251349429e+00  2.0529742029642266e+00  2.3224855771551400e+00  2.2919062409601834e+00  1.7682814220341050e+00  2.2565265140075468e+00  2.1679790822958624e+00  2.1695194778966331e+00  2.4468582537387724e+00  2.2863736927900882e+00  2.5245700441369023e+00  2.4664618113919174e+00  2.1087250764994074e+00  2.3651886276563183e+00  2.3263246513807654e+00  1.9387248981800198e+00  2.1938910618790843e+00  2.1657021241265313e+00  2.3058397519314213e+00  2.1032508658962068e+00  2.0927196601637070e+00  1.7566195554989110e+00  2.1255422893342706e+00  2.4087719925911792e+00  1.7560529651766534e+00  1.7543094268175243e+00  1.9411312625096062e+00  2.5229478092678090e+00  2.4415437090751797e+00  1.9139432927300681e+00  2.1564947922952440e+00  2.2877044602451120e+00  2.1371524659411452e+00  2.1331620867754775e+00  1.9855034821493092e+00  1.7737690150409822e+00  1.9797059605301039e+00  2.4199255036311307e+00  1.7305443519660295e+00  1.9511472069335949e+00  1.9427841842975457e+00  1.7643274246224856e+00  1.8030589119704830e+00  2.5582614924416447e+00  2.4428302645299653e+00  2.3669196860623840e+00  2.4269518843040561e+00  2.1710396452812835e+00  2.2942985265195257e+00  2.1389389337486580e+00  2.3047246886720543e+00  1.9815448386350500e+00  2.4712510103568697e+00  2.0464092157730329e+00  2.4608152737417917e+00  1.7524739285138995e+00  1.7492366288519361e+00  1.7258527553044098e+00  1.9481594714531354e+00  2.5322669836186749e+00  2.0127630503934051e+00  1.9763724996835503e+00  1.9335088979294444e+00  1.9471837714913669e+00  2.0393130953781733e+00  1.7335254903421238e+00  1.7494926645709989e+00  2.2283263241662410e+00  2.2250102346879150e+00  1.9985745473440328e+00  1.9263651588114319e+00  2.2761696525724631e+00  1.9108728697364739e+00  1.9671720003691653e+00  1.9685438542437184e+00  2.5378553116270108e+00  2.5589537071875057e+00  2.4616895273968753e+00  1.9102582636345600e+00  2.0326646044535557e+00  1.6275153876827009e+00  1.7519082970379776e+00  1.8975968780870685e+00  1.7483721556750822e+00  1.8750953806893045e+00  1.7471691626321872e+00  1.7601415029651684e+00  2.2488732025189839e+00  2.0615420081877129e+00  2.1699062096150872e+00  1.8431075302364281e+00  2.3915578892630496e+00  2.0083032407281212e+00  2.0175285628008020e+00  2.3416343108551172e+00  1.6275153876827011e+00  2.1513390263411480e+00  2.1143999110121392e+00  2.5223310679520798e+00  1.9343611787273329e+00  2.2744053334275671e+00  2.0952698734246105e+00  2.2466944872563288e+00  2.4131094848294885e+00  2.3247759657816349e+00  2.3757485757328936e+00  2.2790417388953830e+00  2.3194188326176786e+00  2.3747426329833985e+00  2.3150277252865337e+00  2.5204052686330716e+00  1.6275153876827011e+00  1.7311848914430266e+00  2.2514891039625065e+00  1.9538888496259719e+00  1.9606273404035330e+00  1.6275153876827011e+00  1.7486671131759002e+00  2.4269570107419880e+00  2.3906868215693464e+00  2.4397259747532716e+00  2.4061852515609607e+00  2.5545910483845398e+00  1.8984339079577266e+00  1.6275153876827011e+00  1.7535527570274092e+00  1.8890326127230272e+00  2.3186716829197920e+00  1.7402067748462278e+00  2.3129678492328725e+00  2.0881387720144740e+00  1.8808754552100362e+00  2.4123750338167227e+00  1.8466534680943112e+00  2.3238768246765251e+00  2.1317736646237964e+00  1.7298847644525612e+00  2.4913558150070454e+00  1.9934234897392173e+00  2.2667641819390210e+00  2.4650993615513306e+00  2.3197187180313703e+00  2.2786338816703871e+00  1.8993350834587444e+00  2.0682115226222697e+00  2.1588835434772302e+00  2.3733087205593812e+00  2.2396312157983376e+00  1.9241676676747872e+00  1.8758891950404872e+00  2.2083309723111189e+00  2.3246536510472180e+00  2.1191655955853612e+00  2.4979175141703593e+00  1.9054083438478220e+00  2.1438345420962412e+00  1.8804254196883803e+00  1.6275153876827011e+00  2.2071731076228911e+00  1.6275153876827009e+00  1.9996711212451723e+00  2.0778715510126515e+00  2.3488700133340701e+00  1.6275153876827009e+00  2.3769411557542486e+00  1.7402704490440988e+00  1.9343842176943009e+00  1.9495383932507664e+00  2.4349622177579779e+00  2.0232289107124832e+00  2.1361165448385480e+00  2.3141821315707887e+00  2.5101470341890781e+00  2.0895881076606275e+00  1.8608777770263862e+00  1.8676362158804514e+00  1.7494656334969425e+00  2.0381333555890659e+00  2.1812490373616091e+00  2.3805064374012601e+00  2.4643928573124754e+00  1.7436303920589753e+00  2.4967679222303318e+00  1.8688591611295857e+00  1.6275153876827009e+00  2.0934930000194334e+00  1.8871674080284064e+00  1.7371156556167977e+00  2.1240016954720544e+00  2.1896007309543100e+00  2.4700641939007317e+00  2.0014922342269492e+00  2.0088361465553781e+00  1.9690551425483920e+00  2.5381053179523092e+00  2.5419739295848358e+00  1.9721360350301358e+00  1.7400182888332700e+00  2.1374434976810859e+00  1.8505496953202805e+00  2.2355688620365091e+00  2.3183477551334000e+00  1.8575348381843990e+00  2.4462486341991552e+00  2.3718596199679478e+00  2.3768853002180133e+00  2.1072607010935767e+00  2.0029712721334474e+00  1.6275153876827009e+00  2.2323025575923312e+00  2.5595675554829724e+00  2.5443852323207667e+00  2.1452696092181829e+00  2.2751633202787951e+00  1.7190408378014665e+00  2.1954845933631497e+00  2.4999677663536435e+00  2.0909566135702962e+00  2.0371840844469427e+00  2.2303562726529700e+00  1.8219307977844337e+00  1.6275153876827011e+00  1.7381954129049468e+00  1.8416333607181099e+00  2.5138151331841487e+00  2.1415428360116362e+00  1.8553736960931160e+00  2.4951890714114677e+00  2.5420204683831886e+00  2.5062422029755465e+00  2.2899339514089938e+00  1.6275153876827011e+00  2.2537663427247514e+00  2.3821720312929715e+00  1.9208457563028483e+00  1.8557139160023264e+00  2.3518430823359657e+00  2.3639688033810788e+00  2.0108726026096426e+00  1.9342686546124479e+00  2.4881196868185991e+00  2.0951805928830223e+00  1.7688032446703732e+00  2.2732956082517979e+00  2.3004841034894596e+00  2.2773886909385110e+00  2.2046132997328698e+00  2.3923726730935417e+00  2.4066223843175147e+00  2.0185458384679746e+00  2.3665120117298399e+00  2.2988680560268122e+00  2.3966392550244904e+00  2.3721282490465843e+00  2.4663289843984817e+00  1.7438301452158305e+00  2.0532083499380325e+00  2.3391376430591837e+00  2.0629650711957397e+00  2.3691902781861289e+00  2.1040069278892766e+00  2.1910577806166298e+00  2.1500986423006876e+00  1.7564128123725498e+00  2.2978914392604479e+00  1.7823824387978520e+00  2.5475100272917044e+00  1.7211721728700420e+00  2.1170906664919884e+00  1.7382594366345867e+00  1.7221725995565662e+00  1.9965119132760099e+00  2.0219060334727921e+00  2.2652840659367222e+00  1.6275153876827009e+00  1.7342374799154878e+00  2.1718388328222278e+00  2.3640694168957275e+00  2.4273062223649715e+00  1.6275153876827009e+00  2.3097873763688668e+00  2.0027862762918414e+00  1.9673540407314247e+00  2.0026858019638882e+00  1.9673700032074362e+00  1.7389370322296465e+00  1.7306842201986270e+00  1.8360689017620906e+00  1.8493893703247135e+00  1.7236226660313014e+00  1.7378090649957050e+00  2.1981520082607817e+00  1.9855036646544235e+00  2.0079369896524226e+00  2.1824520557745859e+00  2.4671417668335076e+00  2.4834910800357086e+00  2.1984155296544623e+00  2.4645000029936330e+00  1.7420505999719189e+00  2.5375441329325370e+00  2.5440335256124675e+00  2.4187484645196040e+00  2.5113055357002256e+00  2.0875656910601119e+00  2.1924652484785168e+00  1.8879732536129910e+00  1.8571040395742153e+00  2.5180338910191566e+00  1.8721955957596419e+00  1.8848933988191039e+00  1.8333354331691729e+00  1.6275153876827009e+00  1.7270619592305101e+00  1.8356989641027355e+00  1.8943573714941213e+00  2.2599871858999556e+00  2.2086225283348990e+00  2.0966079294272761e+00  1.9433052116398783e+00  2.4167026113813637e+00  2.1954439202368143e+00  2.0692330030789283e+00  2.5236446747688945e+00  2.1341919440864787e+00  2.1748789366113539e+00  2.2376373805526000e+00  1.7319465461410637e+00  1.8830264202102482e+00  1.6275153876827013e+00  1.7263095619064686e+00  2.4992023576547822e+00  2.0077317020862755e+00  1.7254734380455770e+00  1.8378646701778789e+00  2.4569080369320577e+00  2.2355674329578674e+00  2.2063015309342862e+00  2.2792135886889029e+00  1.8898707091584139e+00  1.8481318137160181e+00  2.0898684246312165e+00  2.0552106120002018e+00  2.0981402350200660e+00  2.2882720422664975e+00  2.0567082004944632e+00  1.8543915823241608e+00  1.7238412328751422e+00  1.8786298957430227e+00  2.5466152156456676e+00  1.8838389579051771e+00  2.4693390565088178e+00  2.5375726715432090e+00  1.9598258181296817e+00  2.0673731180389172e+00  2.0011518447188639e+00  2.3613851475492926e+00  2.4843645631987021e+00  2.5336171216036312e+00  2.2064609630199672e+00  2.2997580887267626e+00  2.5182346356836525e+00  2.1353673368393835e+00  2.3880426064009295e+00  2.5072542417026606e+00  1.7297326756672908e+00  2.4858004376072045e+00  2.1257507579203399e+00  2.1456075049279439e+00  2.2382069860589375e+00  2.2520763585337922e+00  2.0852419590290583e+00  2.0099107727508709e+00  1.9120727196069167e+00  1.7148506813435167e+00  1.9508968997715785e+00  1.8441401765862195e+00  1.7268801218548231e+00  1.6275153876827011e+00  2.2522707081917623e+00  2.3352851046899716e+00  1.6275153876827009e+00  2.3883257902122668e+00  2.3235499702219480e+00  2.4083384284201412e+00  2.3493440394639702e+00  2.1529855384152401e+00  2.5511319141579669e+00  1.7261945768365932e+00  1.8479389098779044e+00  2.2903067779153288e+00  1.8633919744785628e+00  1.8472083580388665e+00  2.1202025148484807e+00  1.7155359634682126e+00  1.8410022994541608e+00  1.7309143754170038e+00  1.7190661728689849e+00  2.4341005435286531e+00  2.5606466425628405e+00  1.9166890168783930e+00  2.4451346521203008e+00  1.8858981829780130e+00  1.7338652971680535e+00  1.6275153876827009e+00  1.6275153876827009e+00  2.2194559797299709e+00  2.1953839536708513e+00  2.2181981727860394e+00  2.4789600253138646e+00  2.4510662675464734e+00  1.9183548866127806e+00  2.2473816203301591e+00  1.6275153876827009e+00  1.7281593970109539e+00  1.6275153876827009e+00  1.8614231238240202e+00  2.4536615740548222e+00  2.4203109727716310e+00  2.1898420402841534e+00  2.3527274538590559e+00  2.1497807211057332e+00  2.2210420020730108e+00  2.2378537755355032e+00  2.4270593941078769e+00  1.7235458447108736e+00  2.4176853091272341e+00  1.7174249780612958e+00  2.2856831275458607e+00  1.8430221605927148e+00  1.8892333419342673e+00  2.3873649102648646e+00  2.1577026551087375e+00  2.2094765340135201e+00  2.1942172798259745e+00  2.2406045084471620e+00  1.6275153876827011e+00  2.4085275645245772e+00  1.7176252120247970e+00  1.8689258899233343e+00  1.9985735684915438e+00  1.6275153876827009e+00  1.6275153876827013e+00  1.7112970616736942e+00  1.8282699315997433e+00  1.7264695815086122e+00  1.6275153876827009e+00  1.7204921690520814e+00  1.7230803015853813e+00  2.5199126872559043e+00  1.6275153876827007e+00  2.4683992475443581e+00  1.8300223823037756e+00  1.8261863584217828e+00  2.3322992618172025e+00  2.2890364516595838e+00  2.3276572788512255e+00  2.1080054827119050e+00  1.9255276974835145e+00  2.0735448825210065e+00  2.1098313273636502e+00  2.3662120387344792e+00  2.2041133739899