<?xml version="1.0"?>
<VTKFile type="UnstructuredGrid"  version="0.1"  >
<UnstructuredGrid>
<Piece  NumberOfPoints="8165" NumberOfCells="16057">
<Points>
<DataArray  type="Float64"  NumberOfComponents="3"  format="ascii">-0.9987569212189223 0.04984588566069748 0  -0.9987569212189223 -0.04984588566069723 0  -0.9888308262251285 -0.1490422661761745 0  -0.969077286229078 -0.2467573976902936 0  -0.9396926207859084 -0.3420201433256687 0  -0.9009688679024191 -0.433883739117558 0  -0.8532908816321557 -0.5214352033794979 0  -0.7971325072229226 -0.6038044103254772 0  -0.7330518718298266 -0.6801727377709191 0  -0.6616858375968597 -0.749781202967734 0  -0.5837436722347905 -0.8119380057158559 0  -0.4999999999999996 -0.8660254037844388 0  -0.4112871031306116 -0.9115058523116731 0  -0.318486650251685 -0.9479273461671316 0  -0.2225209339563146 -0.9749279121818236 0  -0.1243437046474858 -0.992239206600172 0  -0.02493069173807316 -0.9996891820008162 0  0.07473009358642436 -0.9972037971811801 0  0.17364817766693 -0.9848077530122081 0  0.2708404681430051 -0.962624246950012 0  0.3653410243663945 -0.9308737486442045 0  0.4562106573531629 -0.8898718088114687 0  0.5425462638657597 -0.8400259231507713 0  0.6234898018587334 -0.7818314824680299 0  0.698236818086073 -0.7158668492597183 0  0.7660444431189778 -0.6427876096865396 0  0.8262387743159945 -0.5633200580636227 0  0.8782215733702283 -0.4782539786213186 0  0.9214762118704076 -0.3884347962746947 0  0.9555728057861406 -0.2947551744109047 0  0.9801724878485438 -0.1981461431993977 0  0.9950307753654013 -0.09956784659581729 0  1 0 0  0.9950307753654014 0.09956784659581666 0  0.9801724878485438 0.1981461431993976 0  0.9555728057861407 0.2947551744109042 0  0.9214762118704076 0.3884347962746947 0  0.8782215733702285 0.4782539786213182 0  0.8262387743159949 0.5633200580636221 0  0.766044443118978 0.6427876096865393 0  0.6982368180860729 0.7158668492597184 0  0.6234898018587336 0.7818314824680298 0  0.5425462638657594 0.8400259231507714 0  0.4562106573531631 0.8898718088114685 0  0.365341024366395 0.9308737486442042 0  0.2708404681430052 0.962624246950012 0  0.1736481776669304 0.984807753012208 0  0.07473009358642439 0.9972037971811801 0  -0.02493069173807291 0.9996891820008162 0  -0.1243437046474852 0.9922392066001721 0  -0.2225209339563143 0.9749279121818236 0  -0.3184866502516843 0.9479273461671318 0  -0.4112871031306114 0.9115058523116732 0  -0.5000000000000002 0.8660254037844385 0  -0.5837436722347896 0.8119380057158566 0  -0.6616858375968592 0.7497812029677344 0  -0.7330518718298263 0.6801727377709194 0  -0.7971325072229225 0.6038044103254774 0  -0.8532908816321556 0.5214352033794981 0  -0.900968867902419 0.4338837391175582 0  -0.9396926207859083 0.3420201433256689 0  -0.9690772862290778 0.2467573976902938 0  -0.9888308262251285 0.1490422661761747 0  0 -3.33066907387547e-16 0  0.2922351073784631 0.4064742824134499 0  -0.2283892344877995 0.445489683178082 0  -0.5006223129745928 1.249000902703301e-16 0  0.4851417124831425 -0.1235322591753062 0  -0.2283892344877995 -0.4454896831780823 0  0.2244381293544702 -0.4974059892257727 0  0.6017400542999141 0.2190154685308969 0  -0.5581446696297816 -0.3410751076665679 0  0.04888157636984874 0.6522793058172992 0  -0.5581446696297816 0.341075107666568 0  0.5318003682503499 -0.4338991867093802 0  -0.02655531792237059 -0.6858388666358241 0  0.2846822903539273 0.1036158799115578 0  0.2057127456600814 -0.2065170392348358 0  0.5499950705631735 0.4828159805817372 0  0.7365712010015821 -0.03676074036240858 0  -0.3332123644358574 -0.2036218372401125 0  -0.2503111564872963 0.1529619636172051 0  0.02918230080088918 0.3894107416776539 0  0.3119038197247055 0.6693125881472082 0  -0.4533085568472715 0.5829019520470146 0  -0.2086642468434529 0.7083237716612585 0  -0.4533085568472716 -0.5829019520470144 0  -0.7255122091309201 -0.1374604227155882 0  -0.7255122091309201 0.1374604227155883 0  -0.05009008488438581 -0.2556093177500643 0  0.3851790873862939 -0.6671497493660733 0  0.6709552008695683 -0.254288853195751 0  -0.2603565207201746 -0.7190461267637986 0  -0.01274908188504958 -0.4693251432427898 0  0.180383544466418 -0.7001037260965679 0  0.3847163576179377 -0.2973202411100294 0  -0.04995432007195971 0.1995423851608914 0  -0.1678190342621316 -0.0998261742388182 0  0.1403205714878223 0.2316624653136229 0  0.7349932089154046 0.3539540744095583 0  0.7879319621210741 0.1537397135554779 0  0.5698193606007648 0.03876274873020472 0  0.4558478162384035 0.3273736178084163 0  -0.4419539887971066 0.1852825496193718 0  -0.7464085988633791 -0.3252307397060302 0  -0.7464085988633791 0.3252307397060303 0  0.02064469536321903 0.827826152484757 0  -0.6299332241648122 0.5158342404302462 0  -0.6649689944704764 -0.4839644683910337 0  0.70800971084343 -0.4326557279765403 0  -0.3223706017906134 -0.01040698776897026 0  -0.5054246806996193 -0.1745782100334494 0  -0.4005901524784139 -0.416410058674076 0  -0.1042571859310078 0.5683311063186439 0  -0.4005901524784139 0.4164100586740762 0  0.1877980753282089 0.5464445901741976 0  0.1206822009066526 -0.3580378865832485 0  0.4460042554300219 0.1536417414647964 0  0.1738116160219865 0.7624188124093614 0  -0.8321051542296078 6.938893903907228e-17 0  -0.3796152393980441 0.7404669187156475 0  0.4930547478800816 0.6553511379173387 0  0.5542774023972679 -0.610736590905896 0  0.06765100167578174 -0.8273503122395667 0  -0.1263627236672069 -0.8227899655417861 0  0.1732568394682733 -0.03313223201635654 0  0.3244981183472287 -0.0945514879573747 0  0.3964818767539355 0.5278166619520006 0  0.8225174138930775 -0.2094386686091706 0  0.3862762456383678 -0.5051310802049933 0  -0.1330531929054866 -0.5703508657222929 0  -0.177647535364107 0.2946018482597728 0  0.2899951183081392 0.2550067652537422 0  0.08441079514704673 -0.5842176964322349 0  -0.1490115292621843 0.8450863768180583 0  0.2737504708168863 -0.814776874033456 0  -0.142353501387633 0.04833782824577596 0  0.06123953108016653 -0.1447132819643286 0  0.5259110046002531 -0.2630012123273205 0  -0.2028836910358441 -0.2907872567933579 0  0.6961680963734469 0.4954410198387236 0  -0.5896348602892731 0.1963655996997491 0  -0.4687501505461277 -0.7257671910482482 0  -0.3280940097505531 0.2841706514959641 0  0.4262046142439533 0.009495858005196894 0  -0.3034808298607995 -0.575360661977006 0  -0.655077525044371 5.551115123125783e-17 0  -0.2988533483177751 0.5829350221229744 0  0.2606280324088774 -0.3621577007324048 0  0.06109885742534778 0.1213198421233271 0  0.5883360859796991 0.3533614497113013 0  0.3043653793591053 0.8070919162104671 0  -0.5977628423620102 -0.6160630342157603 0  -0.5768580796341715 0.6421662051486873 0  -0.8346144062426474 -0.2203666761707024 0  -0.8558623315149202 0.173016302948436 0  0.8612845745432718 0.03178923580507788 0  0.6132723301615656 -0.08714674393221392 0  0.1628110939985944 0.3655319136460566 0  -0.09567032507741235 0.4355151996776715 0  0.05746843722344426 0.5194633991763268 0  -0.436019945709395 -0.2881300360956253 0  -0.07596061144871569 0.6983647226519493 0  -0.6275255320060281 -0.2275110374504959 0  -0.5226873339000571 -0.469341295132707 0  -0.1125799974105092 -0.3851292258287221 0  0.619011024823678 0.6063877701182406 0  -0.2763102364367199 0.8192202812544818 0  0.7745348125424459 -0.3258032396315157 0  -0.518060795045081 0.4596654131466001 0  0.6694847456509949 0.1140659043624926 0  -0.4164279919677704 -0.08967120904698817 0  -0.3237023997545292 -0.8247802633914654 0  0.8468194484731224 -0.0896151494438422 0  0.4258293249936974 0.7649442768810276 0  -0.4452381011188446 0.304057250497095 0  -0.1429733645462529 -0.705840003340848 0  0.6708719183416081 -0.5559925608496961 0  -0.3198578181913611 -0.3250798040022018 0  0.4976994035910101 -0.722786655132186 0  0.3915320294649418 -0.7878115305337891 0  0.3013332399688708 -0.585568912488973 0  -0.05021176719619284 -0.1065627974183157 0  -0.5778499190094819 -0.08523074965409963 0  -0.4069729011762343 0.07227633527667994 0  0.1017761104609 -0.4710042480313572 0  0.8313172614604811 0.2723171946851911 0  -0.06237900155959543 0.3161471027625475 0  0.7228946573831219 -0.1512956814359499 0  0.6036725534446189 -0.345871914207299 0  0.1705451400955359 0.08284736515785829 0  -0.3661633096233823 -0.6724877309579722 0  -0.7432283975853058 0.454177419441099 0  -0.7886115584549602 -0.4294549654143447 0  0.210520553651675 0.8682430176792441 0  0.1024345016269031 -0.2481784681422972 0  -0.8322817485593992 -0.1101956133222516 0  -0.477755773363484 0.6903516518401452 0  0.03638745749539424 0.2677067415209754 0  0.005824306220235123 -0.3559598780800155 0  -0.02393057554055716 -0.5773091896046807 0  -0.656853418329663 0.3875346040967115 0  0.2023789243848113 0.6558288354998336 0  -0.5778499190094819 0.08335021638867035 0  0.8934476994401067 0.1341710538308732 0  0.3910989747205646 -0.1850985530637385 0  0.2900570811000597 0.5137964995259913 0  0.452764781948902 0.4354733387228008 0  0.4254647729341454 -0.4009256457985336 0  0.07502847893507417 -0.7203260015172291 0  0.2868290874409293 -0.7087819889995405 0  0.1884682971157424 -0.5957245682636509 0  0.7140991219034133 0.2413235030500445 0  0.1696702818122023 -0.8041727389113376 0  -0.03976182458011464 0.09606993450337703 0  -0.144895576760654 0.1537255187907586 0  -0.0679575666902707 -0.9068307063252722 0  -0.6878282916538929 0.2367020581784782 0  0.2741614604364078 -0.001581553459900201 0  0.2887101103557479 -0.2647410788026469 0  -0.6958459635813904 -0.5838840913973433 0  0.4522629467729725 -0.586590978490136 0  -0.06798126544149206 0.9071469441830431 0  -0.2251516232954611 -0.8119800599910756 0  0.7531456777622132 0.06094452615252965 0  0.5941459501568455 -0.1872721025851182 0  -0.216657295148843 -0.6276165006205845 0  -0.228089505904504 -0.1874590519798677 0  -0.26831543489379 -0.09525095123827111 0  -0.1134800437664088 -0.1811377597871832 0  -0.3760665750606548 0.5157676543792213 0  -0.1992448771787426 0.6064188495583912 0  -0.5683961947462335 -0.7122395910944973 0  -0.3431915831704673 0.186560664
[...]
<PointData  Scalars="f_52"> 
<DataArray  type="Float64"  Name="f_52"  format="ascii">1.0100000000000000e+00  1.0100000000000000e+00  1.0099999999999998e+00  1.0100000000000000e+00  1.0100000000000000e+00  1.0100000000000000e+00  1.0100000000000000e+00  1.0099999999999998e+00  1.0100000000000000e+00  1.0100000000000002e+00  1.0099999999999998e+00  1.0100000000000000e+00  1.0100000000000000e+00  1.0100000000000000e+00  1.0100000000000002e+00  1.0100000000000000e+00  1.0100000000000000e+00  1.0100000000000000e+00  1.0100000000000000e+00  1.0099999999999998e+00  1.0100000000000000e+00  1.0100000000000000e+00  1.0100000000000000e+00  1.0100000000000000e+00  1.0100000000000000e+00  1.0100000000000000e+00  1.0100000000000000e+00  1.0100000000000000e+00  1.0100000000000000e+00  1.0100000000000000e+00  1.0100000000000000e+00  1.0099999999999998e+00  1.0100000000000000e+00  1.0100000000000000e+00  1.0100000000000000e+00  1.0099999999999998e+00  1.0100000000000000e+00  1.0100000000000000e+00  1.0100000000000000e+00  1.0099999999999998e+00  1.0100000000000000e+00  1.0100000000000000e+00  1.0100000000000000e+00  1.0100000000000000e+00  1.0099999999999998e+00  1.0099999999999998e+00  1.0099999999999998e+00  1.0100000000000000e+00  1.0099999999999998e+00  1.0100000000000000e+00  1.0100000000000000e+00  1.0100000000000000e+00  1.0100000000000000e+00  1.0099999999999998e+00  1.0099999999999998e+00  1.0100000000000000e+00  1.0100000000000000e+00  1.0100000000000000e+00  1.0100000000000000e+00  1.0099999999999998e+00  1.0099999999999998e+00  1.0099999999999998e+00  1.0100000000000000e+00  8.9974494136709438e-02  3.3992925781176181e-01  3.3979719770625338e-01  3.3990703079296325e-01  3.3985021534417831e-01  3.3979137857521036e-01  3.8658766703226022e-01  4.9728487965674989e-01  5.1473911710178821e-01  5.1472203481691026e-01  5.1465841608224894e-01  5.5685108695183094e-01  5.5687524911601238e-01  1.8166637635337332e-01  1.7484257040574366e-01  6.1914465254462270e-01  6.2704079320797157e-01  2.4220688844542620e-01  1.7592533374752894e-01  2.4213698664757477e-01  6.2837463506327340e-01  6.2845032124741496e-01  6.2836598761403151e-01  6.2841100261072458e-01  6.2836538021056954e-01  6.2831579654213576e-01  1.5774489729497038e-01  6.7424215598124504e-01  5.9913049827315035e-01  6.6606443590260189e-01  3.0985341331751237e-01  6.0674648725820635e-01  3.2571639121026785e-01  1.3231047210833971e-01  1.2801897538642887e-01  1.6323785125084286e-01  7.4135445012245471e-01  7.2193383072067230e-01  4.1479003931874248e-01  4.0363352250335016e-01  3.1896813781858468e-01  7.3896442790350714e-01  7.3897757479900861e-01  7.5979907063886676e-01  7.3893071384548148e-01  7.5130545292085293e-01  7.6237720653137464e-01  1.9381629042423099e-01  3.7484622027299724e-01  4.2229383838898488e-01  4.2228590552799855e-01  4.2235334369563376e-01  4.2231455808106427e-01  2.3248752423799940e-01  3.1199224913704171e-01  6.9119645551634079e-01  7.6587458150851484e-01  7.6593466017056899e-01  7.4785380565349546e-01  7.5482294283299001e-01  7.6291171853922679e-01  7.6641962843280742e-01  1.2101385506436062e-01  2.0397895136463901e-01  5.2241544821086072e-01  7.9115247367877917e-01  4.9173306519028204e-01  4.3124183229652041e-01  2.0816537339606617e-01  2.3883185261379555e-01  4.3669486213537029e-01  8.0529877562821006e-01  8.0745556031457999e-01  1.1255197151346334e-01  1.1458986462279377e-01  4.3406216855702734e-01  2.1547374772074257e-01  7.9975975093919915e-01  4.7390363671056634e-01  8.1420611733956472e-01  2.7791398904824460e-01  2.7132827355631511e-01  5.1008687120377350e-01  5.1596952530000106e-01  5.1596952371939708e-01  2.8855880779448423e-01  1.0839081449065860e-01  5.5677475288145328e-01  8.1208613845295663e-01  8.0570911609510287e-01  8.1303551305360455e-01  8.1302883262708026e-01  8.2818731675461410e-01  8.1102415263344219e-01  4.7137490929902259e-01  2.4979899239821668e-01  2.8835506843089093e-01  3.6226302871669680e-01  3.6221957454233106e-01  5.7855583645350528e-01  5.3199201593904699e-01  5.7855666076548184e-01  2.5069311886768481e-01  8.1810421596402816e-01  8.1508093326741704e-01  7.7825783266851245e-01  5.6521183653971108e-01  5.4726155782109220e-01  2.7107633034604850e-01  8.4762685819574379e-01  7.9534548807968175e-01  8.3163867219509180e-01  3.7955094980025494e-01  6.0280804786103370e-01  8.2538275740728528e-01  2.9737634212645642e-01  8.3481167134926892e-01  8.3815736231459681e-01  5.2045713358464263e-01  1.0384886564924686e-01  4.2941371402051820e-01  2.6044629179646156e-01  3.2146482194819126e-01  8.3062810196681514e-01  1.9374288999630068e-01  6.2859440816061329e-01  5.6939784575128360e-01  1.2589456300164023e-01  6.6747250396079194e-01  8.2487777134671159e-01  8.6568815180970693e-01  8.5883259619413232e-01  1.6201364322690881e-01  7.7712442613288246e-01  7.7716365211340488e-01  1.6284779824216461e-01  2.1647928086028578e-01  4.2231218332099824e-01  6.6304822084166404e-01  5.5685396486412175e-01  4.2922291259543666e-01  8.7398142484464991e-01  2.7680254007372973e-01  4.3638290257857704e-01  4.8217780158630769e-01  4.3006611147174628e-01  6.0844500895974174e-01  6.6584468502105654e-01  4.7797140074070299e-01  6.5027161594948946e-01  7.5054340602770664e-01  1.0086223058272641e-01  1.3467002148576615e-01  8.8280204097083093e-01  6.1289272202287892e-01  1.6508859617538860e-01  2.4309826495984915e-01  8.8131169908072693e-01  6.3161874024490194e-01  8.8329264726917001e-01  7.8180813559249895e-01  6.5288081645018281e-01  4.7569786346837312e-01  5.2736938751764895e-01  1.7703436969577066e-01  1.7094763770837201e-01  1.3560000914361958e-01  4.9473966089928434e-01  4.9467803060992582e-01  8.8558773266939894e-01  2.4225551846664115e-01  8.6905369823750556e-01  7.4479777552219639e-01  8.7226712887360991e-01  8.5869713371784961e-01  8.7227674089900531e-01  1.6426239933362458e-01  8.9184976329508647e-01  1.3614668595190910e-01  3.8376934270736673e-01  8.7721160427902178e-01  3.2904332607226683e-01  8.6847419952776217e-01  9.9107886613859802e-02  6.7810314624897328e-01  6.1031071226920208e-01  6.8204716554646727e-01  8.7540362743225653e-01  8.9014453228476698e-01  2.9506645671146953e-01  3.3063430678132100e-01  4.9705944273106389e-01  3.0385639598258463e-01  3.2989309126988819e-01  6.8598552747508712e-01  8.8535443968167571e-01  8.7681477682399289e-01  9.0081007359371079e-01  4.4043426441193428e-01  5.1093929115099956e-01  3.7402027205111665e-01  3.3602162735544361e-01  4.2342500761756396e-01  4.5149982792705978e-01  6.9262749382154809e-01  6.3410847397994052e-01  8.9505823512407912e-01  1.0213464718808017e-01  8.9896624560889515e-01  4.2822860199635104e-01  8.8613139182468526e-01  7.2324517670171162e-01  1.9498028871548448e-01  6.2054988739709660e-01  7.1919234533191412e-01  6.6489577642383080e-01  6.2485044687353564e-01  8.7111263395540561e-01  9.7868469759417570e-02  2.3288199691093053e-01  9.0648552905297186e-01  8.8094448157634919e-01  9.0528160214710185e-01  6.3736107921371077e-01  6.2059268317905703e-01  6.3737122682772707e-01  6.2059665855745894e-01  7.3612985210956206e-01  1.2981530590539261e-01  6.5316035089408897e-01  8.8254873483076890e-01  9.0342758447601257e-01  4.4802692122572974e-01  2.9528466225818195e-01  3.9326577503082855e-01  4.7444468327662875e-01  3.0736792419278003e-01  4.7604997528045495e-01  3.6209851067921861e-01  4.7442477368539715e-01  9.0228419239135371e-01  9.0212859639436482e-01  2.1449619120090446e-01  2.1607298515985349e-01  3.0123602059021748e-01  7.5515804367811445e-01  9.0572987912945147e-01  1.6224161610041457e-01  1.4591300430973456e-01  5.6189328887011092e-01  6.7068318950365835e-01  9.1096406962356424e-01  4.6597216716218104e-01  3.4148905595131140e-01  4.5966305719248113e-01  7.5224692273785865e-01  8.9050787014458399e-01  2.1225988752434069e-01  8.9390841302765867e-01  9.1332099582271042e-01  8.8521904003859475e-01  3.9753358291272789e-01  3.3278796214027839e-01  2.5941573112792393e-01  3.4764356385695278e-01  5.8658970625647744e-01  6.1938972532284509e-01  7.4213434102842790e-01  5.1313955266442535e-01  6.6958120198899396e-01  5.8169795369118993e-01  9.0463706727078297e-01  6.7587301970637259e-01  9.1789202561036043e-01  4.2505206417186597e-01  8.9177400099688997e-01  6.7575746907210255e-01  4.0108361317697572e-01  9.1890822599670507e-01  2.6511215387622805e-01  4.2353105023412524e-01  8.8812038555952943e-01  2.3733216999717216e-01  2.6570566602914225e-01  3.4532127125703205e-01  5.7829944341944328e-01  2.0755828355275344e-01  9.2245836707748907e-01  6.6073124942253381e-01  1.6551904191154773e-01  2.7178868554228436e-01  1.7553934151405581e-01  9.2194215840997973e-01  8.9227046432077317e-01  5.2923113543758937e-01  7.7510017609462412e-01  6.8713142153870999e-01  9.1047045470089905e-01  5.2597769736124722e-01  1.3856046483398088e-01  4.9125640811009802e-01  2.3277809391973467e-01  2.8160695103303024e-01  1.7385023007349401e-01  5.1741768160513113e-01  6.3458483575581326e-01  3.5180291286715404e-01  3.8456905376126904e-01  9.0341569132738808e-01  4.2231926175873841e-01  5.1581912613211389e-01  5.1419590932137471e-01  2.1728505354488753e-01  3.9047917688270734e-01  1.3235211221053883e-01  1.9591909575146793e-01  5.7745035677305556e-01  3.0582691882398844e-01  3.4767465523539720e-01  7.4812661081077103e-01  4.8859894510002838e-01  5.1818662700445839e-01  3.6964706034132128e-01  5.8310661583966117e-01  5.9395226904169907e-01  9.1307492730912176e-01  5.6003935166076935e-01  2.5866669135667425e-01  9.1359641030615246e-01  9.1499597289060464e-01  7.4578395752369742e-01  1.3413301365199159e-01  2.2307193267359943e-01  7.7194537973262478e-01  5.2782528776576620e-01  3.8906363523865278e-01  5.4798285410243153e-01  5.5214493746169246e-01  7.0231452661397831e-01  8.9871318023036451e-01  7.0807056515694744e-01  2.4656500855355001e-01  9.3419763735923322e-01  7.3608729450571053e-01  7.4420942376169930e-01  9.0677000834867882e-01  8.7357066639538417e-01  9.5340459058236585e-02  2.2166807567296234e-01  3.0395792672891236e-01  2.3893317952798504e-01  5.1261580662489603e-01  3.8201435289232422e-01  5.4614737537470215e-01  3.7084404586358161e-01  7.0624581166311384e-01  1.9068994775590981e-01  6.4125390726074194e-01  2.0207500709448131e-01  9.1648312612696925e-01  9.1916032558461969e-01  9.3790665568274256e-01  7.3896296187895683e-01  1.2391001576484180e-01  6.7514819017932348e-01  7.1133294152232784e-01  7.5314765841799924e-01  7.3992638336477179e-01  6.4843630047495215e-01  9.3172248507602129e-01  9.1892158092695864e-01  4.5224396554580965e-01  4.5575029807015216e-01  6.8932698763594424e-01  7.6006100205988658e-01  4.0137405459656622e-01  7.7486105491382129e-01  7.2038047167476305e-01  7.1904883676077402e-01  1.1777001628034875e-01  9.4577409966453030e-02  2.0112567253332148e-01  7.7545314041127389e-01  6.5515295350063463e-01  1.0075153876827005e+00  9.1693499067281758e-01  7.8747420440903104e-01  9.1993299972611686e-01  8.0857036021299644e-01  9.2084672537435430e-01  9.1019833546592233e-01  4.3044105314748382e-01  6.2586948678217103e-01  5.1377489031152079e-01  8.3794316710227901e-01  2.7731938689040719e-01  6.7962753399335896e-01  6.7038816564228076e-01  3.3120823833021323e-01  1.0075153876827008e+00  5.3320647908428820e-01  5.7159400082607326e-01  1.3480892368789635e-01  7.5236155069139432e-01  4.0326040005676350e-01  5.9133567122404695e-01  4.3275981863477336e-01  2.5396500698356039e-01  3.4933884702865498e-01  2.9442129655447985e-01  3.9830945530285006e-01  3.5509304106870865e-01  2.9550982940395160e-01  3.5980271752246967e-01  1.3691928232300696e-01  1.0075153876827008e+00  9.3364712551448981e-01  4.2765758213470734e-01  7.3340719755041561e-01  7.2678738383979558e-01  1.0075153876827008e+00  9.1953004202053756e-01  2.3893154060345262e-01  2.7826138534427503e-01  2.2504260988857025e-01  2.6147293933300420e-01  9.9380694909850603e-02  7.8665838248106235e-01  1.0075153876827008e+00  9.1562631974801489e-01  7.9549411195725372e-01  3.5589419935461247e-01  9.2642719345648217e-01  3.6200413515479463e-01  5.9865534194372017e-01  8.0314876736151963e-01  2.5475896952783711e-01  8.3473866486646908e-01  3.5030195016861365e-01  5.5357314526364387e-01  9.3473810723878181e-01  1.6872844415094546e-01  6.9445426756871986e-01  4.1140608270068096e-01  1.9740535401924617e-01  3.5476430508664059e-01  3.9875831221710190e-01  7.8580049843663835e-01  6.1906772284855582e-01  5.2532416781447400e-01  2.9705258490754466e-01  4.4025584245547228e-01  7.6214483862947813e-01  8.0784128323117688e-01  4.7338368634307543e-01  3.4946681378940164e-01  5.6665837573688183e-01  1.6155450440072369e-01  7.8007078388378137e-01  5.4103334729941699e-01  8.0358869614292072e-01  1.0075153876827005e+00  4.7460705854838442e-01  1.0075153876827005e+00  6.8822458903646977e-01  6.0918812989272708e-01  3.2342370240854112e-01  1.0075153876827005e+00  2.9313280199474168e-01  9.2635956819576748e-01  7.5231103390668308e-01  7.3762826224294342e-01  2.3022943328573520e-01  6.6463492087060494e-01  5.4906462601962391e-01  3.6070537096825522e-01  1.4816351376311290e-01  5.9716123720440772e-01  8.2169919915371736e-01  8.1546408494096534e-01  9.1899669635524850e-01  6.4963648956598108e-01  5.0190622493435366e-01  2.8927487702968646e-01  1.9817706587712311e-01  9.2375402597555700e-01  1.6280951886404024e-01  8.1434126657471262e-01  1.0075153876827005e+00  5.9316668311075538e-01  7.9724491912212880e-01  9.2907567455557150e-01  5.6164217613909095e-01  4.9312582984096354e-01  1.9198687163020653e-01  6.8641853819611542e-01  6.7910695769099894e-01  7.1854285943522544e-01  1.1749702362427121e-01  1.1324801182425291e-01  7.1552041787467824e-01  9.2665684053334985e-01  5.4769726757139947e-01  8.3117154345392463e-01  4.4457634192195572e-01  3.5623954289000237e-01  8.2478560144334057e-01  2.1795340312045267e-01  2.9862996375565187e-01  2.9319212659375876e-01  5.7896362067610774e-01  6.8495637768325435e-01  1.0075153876827005e+00  4.4803168169528940e-01  9.3904027238125770e-02  1.1060152389763440e-01  5.3953461849599638e-01  4.0245612489772142e-01  9.4339549266463019e-01  4.8692961594857859e-01  1.5930746529190956e-01  5.9578105290418093e-01  6.5058655549391942e-01  4.5008929636237588e-01  8.5688978544945493e-01  1.0075153876827008e+00  9.2818798885081566e-01  8.3922441251171143e-01  1.4414723743984303e-01  5.4341999528990370e-01  8.2675867922026602e-01  1.6454145749230389e-01  1.1319501640513718e-01  1.5243672594924917e-01  3.8667680430180662e-01  1.0075153876827008e+00  4.2524423754632579e-01  2.8747451748025438e-01  7.6534986562505425e-01  8.2644776793704944e-01  3.2022083759705494e-01  3.0714767269319782e-01  6.7703136971763223e-01  7.5240884723905821e-01  1.7226878384716088e-01  5.9142620829803227e-01  9.0291141183804613e-01  4.0444343306552161e-01  3.7539838853869201e-01  4.0008358658770921e-01  4.7731926977792472e-01  2.7643693745915654e-01  2.6099907500331404e-01  6.6936554049124652e-01  3.0439354159705623e-01  3.7711646676365901e-01  2.7181784208669074e-01  2.9832647520397687e-01  1.9606534959227881e-01  9.2345328035222496e-01  6.3433983332742183e-01  3.3389762291152969e-01  6.2442023416510140e-01  3.0150215452008566e-01  5.8234459293665597e-01  4.9158435247712429e-01  5.3450212863146918e-01  9.1319671423246473e-01  3.7817601256589745e-01  8.9143784163388762e-01  1.0716587948038564e-01  9.4156628505814244e-01  5.6880473976617074e-01  9.2806863600815792e-01  9.4097883347287015e-01  6.9138226424428229e-01  6.6599301387539167e-01  4.1298342285428075e-01  1.0075153876827005e+00  9.3139683564566011e-01  5.1177715727391382e-01  3.0703681501569818e-01  2.3855120711596162e-01  1.0075153876827005e+00  3.6541779832094595e-01  6.8516298510327178e-01  7.2020077827134898e-01  6.8522766382986144e-01  7.2017669977452725e-01  9.2748398299129708e-01  9.3411744408688913e-01  8.4423875339360799e-01  8.3220224899108530e-01  9.3983167617591956e-01  9.2840029108598321e-01  4.8411708077046756e-01  7.0232087020124623e-01  6.8000620634294906e-01  5.0063692556030071e-01  1.9517502857643629e-01  1.7732302356201174e-01  4.8385149210555006e-01  1.9805791109701376e-01  9.2503121508431529e-01  1.1811623550648935e-01  1.1098590915965727e-01  2.4784532351669747e-01  1.4689696751870990e-01  5.9924468650688556e-01  4.9010206188628141e-01  7.9654502948108208e-01  8.2514300390568407e-01  1.3951928783496736e-01  8.1122801965115432e-01  7.9938542945531255e-01  8.4675138615256607e-01  1.0075153876827005e+00  9.3703515697970474e-01  8.4463240166439191e-01  7.9050412451054441e-01  4.1861441699413504e-01  4.7308143804235570e-01  5.8994281752424527e-01  7.4371219035740876e-01  2.5006484787806693e-01  4.8696507238499498e-01  6.1800407875271235e-01  1.3336703178431283e-01  5.5107108168357755e-01  5.0858288151135700e-01  4.4237195905657856e-01  9.3316060683997559e-01  8.0117761301814883e-01  1.0075153876827008e+00  9.3752373043818593e-01  1.6014514960602458e-01  6.8022203041833518e-01  9.3825057146652746e-01  8.4269732839804745e-01  2.0633898712979229e-01  4.4456736873965663e-01  4.7552375606051883e-01  3.9812448409240997e-01  7.9476763055347333e-01  8.3332618508227752e-01  5.9686631125961898e-01  6.3230951700957505e-01  5.8835681635497061e-01  3.8845276542389068e-01  6.3078442427661308e-01  8.2765840380256284e-01  9.3957348964178755e-01  8.0525510075282958e-01  1.0814692939247253e-01  8.0043475179348056e-01  1.9277723588550158e-01  1.1808338083538147e-01  7.2757744760065846e-01  6.1993291388148064e-01  6.8678124827575548e-01  3.0993054364627853e-01  1.7637446766978399e-01  1.2242698769804902e-01  4.7535772252011527e-01  3.7615954777311528e-01  1.3930198987135178e-01  5.4984082449952076e-01  2.8112567343324046e-01  1.5133455693662956e-01  9.3503916819178490e-01  1.7480055532238664e-01  5.5984003946508032e-01  5.3918587545745356e-01  4.4176548420680739e-01  4.2703830914602814e-01  6.0163293583177890e-01  6.7799633714071095e-01  7.7372014389180943e-01  9.4661407395292740e-01  7.3629542037457762e-01  8.3701023783376571e-01  9.3732749291265494e-01  1.0075153876827005e+00  4.2683084355995488e-01  3.3804273390386275e-01  1.0075153876827005e+00  2.8081783873137706e-01  3.5065446191018529e-01  2.5914004135940416e-01  3.2290955363968943e-01  5.3148395366669776e-01  1.0317957056543094e-01  9.3767851687985604e-01  8.3354216088483601e-01  3.8627957077728725e-01  8.1938023187829190e-01  8.3415409956404762e-01  5.6557801456930057e-01  9.4613773569103421e-01  8.3983607534866211e-01  9.3407146859434276e-01  9.4333864775447185e-01  2.3116245990980366e-01  9.2715945339896813e-02  7.6932746681276187e-01  2.1916224874041093e-01  7.9847719973792564e-01  9.3161219738723455e-01  1.0075153876827005e+00  1.0075153876827005e+00  4.6162840451625825e-01  4.8703652294872224e-01  4.6296086387046287e-01  1.8227961120729877e-01  2.1270212114733636e-01  7.6775072459620564e-01  4.3202897409447016e-01  1.0075153876827005e+00  9.3622281003123398e-01  1.0075153876827008e+00  8.2118608537992699e-01  2.0986938219614432e-01  2.4614422204621789e-01  4.9285835531900879e-01  3.1926506226262213e-01  5.3484301289344660e-01  4.5995086371291194e-01  4.4215134961238134e-01  2.3881498768029935e-01  9.3985143000610749e-01  2.4899746875037981e-01  9.4453919461307223e-01  3.9121856859273735e-01  8.3798925361755838e-01  7.9536252298578980e-01  2.8186046133859483e-01  5.2656736415091387e-01  4.7217380586159813e-01  4.8826365341168482e-01  4.3922964872023490e-01  1.0075153876827008e+00  2.5893995811576054e-01  9.4450362113079112e-01  8.1432127970055412e-01  6.8933641586083272e-01  1.0075153876827005e+00  1.0075153876827010e+00  9.4943450371329274e-01  8.5134623897526629e-01  9.3755532764773430e-01  1.0075153876827005e+00  9.4221734151821923e-01  9.4012533967009460e-01  1.3746351310013630e-01  1.0075153876827005e+00  1.9380308145770203e-01  8.4975175255078195e-01  8.5314597876626952e-01  3.4125401913029152e-01  3.8762777846340862e-01  3.4624355204879698e-01  5.7819617110230848e-01  7.6088158543862361e-01  6.1361947263576289e-01  5.7631071551711532e-01  3.0471740530020630e-01  4.7783120577592819e