<?xml version="1.0"?>
<VTKFile type="UnstructuredGrid"  version="0.1"  >
<UnstructuredGrid>
<Piece  NumberOfPoints="8165" NumberOfCells="16057">
<Points>
<DataArray  type="Float64"  NumberOfComponents="3"  format="ascii">-0.9987569212189223 0.04984588566069748 0  -0.9987569212189223 -0.04984588566069723 0  -0.9888308262251285 -0.1490422661761745 0  -0.969077286229078 -0.2467573976902936 0  -0.9396926207859084 -0.3420201433256687 0  -0.9009688679024191 -0.433883739117558 0  -0.8532908816321557 -0.5214352033794979 0  -0.7971325072229226 -0.6038044103254772 0  -0.7330518718298266 -0.6801727377709191 0  -0.6616858375968597 -0.749781202967734 0  -0.5837436722347905 -0.8119380057158559 0  -0.4999999999999996 -0.8660254037844388 0  -0.4112871031306116 -0.9115058523116731 0  -0.318486650251685 -0.9479273461671316 0  -0.2225209339563146 -0.9749279121818236 0  -0.1243437046474858 -0.992239206600172 0  -0.02493069173807316 -0.9996891820008162 0  0.07473009358642436 -0.9972037971811801 0  0.17364817766693 -0.9848077530122081 0  0.2708404681430051 -0.962624246950012 0  0.3653410243663945 -0.9308737486442045 0  0.4562106573531629 -0.8898718088114687 0  0.5425462638657597 -0.8400259231507713 0  0.6234898018587334 -0.7818314824680299 0  0.698236818086073 -0.7158668492597183 0  0.7660444431189778 -0.6427876096865396 0  0.8262387743159945 -0.5633200580636227 0  0.8782215733702283 -0.4782539786213186 0  0.9214762118704076 -0.3884347962746947 0  0.9555728057861406 -0.2947551744109047 0  0.9801724878485438 -0.1981461431993977 0  0.9950307753654013 -0.09956784659581729 0  1 0 0  0.9950307753654014 0.09956784659581666 0  0.9801724878485438 0.1981461431993976 0  0.9555728057861407 0.2947551744109042 0  0.9214762118704076 0.3884347962746947 0  0.8782215733702285 0.4782539786213182 0  0.8262387743159949 0.5633200580636221 0  0.766044443118978 0.6427876096865393 0  0.6982368180860729 0.7158668492597184 0  0.6234898018587336 0.7818314824680298 0  0.5425462638657594 0.8400259231507714 0  0.4562106573531631 0.8898718088114685 0  0.365341024366395 0.9308737486442042 0  0.2708404681430052 0.962624246950012 0  0.1736481776669304 0.984807753012208 0  0.07473009358642439 0.9972037971811801 0  -0.02493069173807291 0.9996891820008162 0  -0.1243437046474852 0.9922392066001721 0  -0.2225209339563143 0.9749279121818236 0  -0.3184866502516843 0.9479273461671318 0  -0.4112871031306114 0.9115058523116732 0  -0.5000000000000002 0.8660254037844385 0  -0.5837436722347896 0.8119380057158566 0  -0.6616858375968592 0.7497812029677344 0  -0.7330518718298263 0.6801727377709194 0  -0.7971325072229225 0.6038044103254774 0  -0.8532908816321556 0.5214352033794981 0  -0.900968867902419 0.4338837391175582 0  -0.9396926207859083 0.3420201433256689 0  -0.9690772862290778 0.2467573976902938 0  -0.9888308262251285 0.1490422661761747 0  0 -3.33066907387547e-16 0  0.2922351073784631 0.4064742824134499 0  -0.2283892344877995 0.445489683178082 0  -0.5006223129745928 1.249000902703301e-16 0  0.4851417124831425 -0.1235322591753062 0  -0.2283892344877995 -0.4454896831780823 0  0.2244381293544702 -0.4974059892257727 0  0.6017400542999141 0.2190154685308969 0  -0.5581446696297816 -0.3410751076665679 0  0.04888157636984874 0.6522793058172992 0  -0.5581446696297816 0.341075107666568 0  0.5318003682503499 -0.4338991867093802 0  -0.02655531792237059 -0.6858388666358241 0  0.2846822903539273 0.1036158799115578 0  0.2057127456600814 -0.2065170392348358 0  0.5499950705631735 0.4828159805817372 0  0.7365712010015821 -0.03676074036240858 0  -0.3332123644358574 -0.2036218372401125 0  -0.2503111564872963 0.1529619636172051 0  0.02918230080088918 0.3894107416776539 0  0.3119038197247055 0.6693125881472082 0  -0.4533085568472715 0.5829019520470146 0  -0.2086642468434529 0.7083237716612585 0  -0.4533085568472716 -0.5829019520470144 0  -0.7255122091309201 -0.1374604227155882 0  -0.7255122091309201 0.1374604227155883 0  -0.05009008488438581 -0.2556093177500643 0  0.3851790873862939 -0.6671497493660733 0  0.6709552008695683 -0.254288853195751 0  -0.2603565207201746 -0.7190461267637986 0  -0.01274908188504958 -0.4693251432427898 0  0.180383544466418 -0.7001037260965679 0  0.3847163576179377 -0.2973202411100294 0  -0.04995432007195971 0.1995423851608914 0  -0.1678190342621316 -0.0998261742388182 0  0.1403205714878223 0.2316624653136229 0  0.7349932089154046 0.3539540744095583 0  0.7879319621210741 0.1537397135554779 0  0.5698193606007648 0.03876274873020472 0  0.4558478162384035 0.3273736178084163 0  -0.4419539887971066 0.1852825496193718 0  -0.7464085988633791 -0.3252307397060302 0  -0.7464085988633791 0.3252307397060303 0  0.02064469536321903 0.827826152484757 0  -0.6299332241648122 0.5158342404302462 0  -0.6649689944704764 -0.4839644683910337 0  0.70800971084343 -0.4326557279765403 0  -0.3223706017906134 -0.01040698776897026 0  -0.5054246806996193 -0.1745782100334494 0  -0.4005901524784139 -0.416410058674076 0  -0.1042571859310078 0.5683311063186439 0  -0.4005901524784139 0.4164100586740762 0  0.1877980753282089 0.5464445901741976 0  0.1206822009066526 -0.3580378865832485 0  0.4460042554300219 0.1536417414647964 0  0.1738116160219865 0.7624188124093614 0  -0.8321051542296078 6.938893903907228e-17 0  -0.3796152393980441 0.7404669187156475 0  0.4930547478800816 0.6553511379173387 0  0.5542774023972679 -0.610736590905896 0  0.06765100167578174 -0.8273503122395667 0  -0.1263627236672069 -0.8227899655417861 0  0.1732568394682733 -0.03313223201635654 0  0.3244981183472287 -0.0945514879573747 0  0.3964818767539355 0.5278166619520006 0  0.8225174138930775 -0.2094386686091706 0  0.3862762456383678 -0.5051310802049933 0  -0.1330531929054866 -0.5703508657222929 0  -0.177647535364107 0.2946018482597728 0  0.2899951183081392 0.2550067652537422 0  0.08441079514704673 -0.5842176964322349 0  -0.1490115292621843 0.8450863768180583 0  0.2737504708168863 -0.814776874033456 0  -0.142353501387633 0.04833782824577596 0  0.06123953108016653 -0.1447132819643286 0  0.5259110046002531 -0.2630012123273205 0  -0.2028836910358441 -0.2907872567933579 0  0.6961680963734469 0.4954410198387236 0  -0.5896348602892731 0.1963655996997491 0  -0.4687501505461277 -0.7257671910482482 0  -0.3280940097505531 0.2841706514959641 0  0.4262046142439533 0.009495858005196894 0  -0.3034808298607995 -0.575360661977006 0  -0.655077525044371 5.551115123125783e-17 0  -0.2988533483177751 0.5829350221229744 0  0.2606280324088774 -0.3621577007324048 0  0.06109885742534778 0.1213198421233271 0  0.5883360859796991 0.3533614497113013 0  0.3043653793591053 0.8070919162104671 0  -0.5977628423620102 -0.6160630342157603 0  -0.5768580796341715 0.6421662051486873 0  -0.8346144062426474 -0.2203666761707024 0  -0.8558623315149202 0.173016302948436 0  0.8612845745432718 0.03178923580507788 0  0.6132723301615656 -0.08714674393221392 0  0.1628110939985944 0.3655319136460566 0  -0.09567032507741235 0.4355151996776715 0  0.05746843722344426 0.5194633991763268 0  -0.436019945709395 -0.2881300360956253 0  -0.07596061144871569 0.6983647226519493 0  -0.6275255320060281 -0.2275110374504959 0  -0.5226873339000571 -0.469341295132707 0  -0.1125799974105092 -0.3851292258287221 0  0.619011024823678 0.6063877701182406 0  -0.2763102364367199 0.8192202812544818 0  0.7745348125424459 -0.3258032396315157 0  -0.518060795045081 0.4596654131466001 0  0.6694847456509949 0.1140659043624926 0  -0.4164279919677704 -0.08967120904698817 0  -0.3237023997545292 -0.8247802633914654 0  0.8468194484731224 -0.0896151494438422 0  0.4258293249936974 0.7649442768810276 0  -0.4452381011188446 0.304057250497095 0  -0.1429733645462529 -0.705840003340848 0  0.6708719183416081 -0.5559925608496961 0  -0.3198578181913611 -0.3250798040022018 0  0.4976994035910101 -0.722786655132186 0  0.3915320294649418 -0.7878115305337891 0  0.3013332399688708 -0.585568912488973 0  -0.05021176719619284 -0.1065627974183157 0  -0.5778499190094819 -0.08523074965409963 0  -0.4069729011762343 0.07227633527667994 0  0.1017761104609 -0.4710042480313572 0  0.8313172614604811 0.2723171946851911 0  -0.06237900155959543 0.3161471027625475 0  0.7228946573831219 -0.1512956814359499 0  0.6036725534446189 -0.345871914207299 0  0.1705451400955359 0.08284736515785829 0  -0.3661633096233823 -0.6724877309579722 0  -0.7432283975853058 0.454177419441099 0  -0.7886115584549602 -0.4294549654143447 0  0.210520553651675 0.8682430176792441 0  0.1024345016269031 -0.2481784681422972 0  -0.8322817485593992 -0.1101956133222516 0  -0.477755773363484 0.6903516518401452 0  0.03638745749539424 0.2677067415209754 0  0.005824306220235123 -0.3559598780800155 0  -0.02393057554055716 -0.5773091896046807 0  -0.656853418329663 0.3875346040967115 0  0.2023789243848113 0.6558288354998336 0  -0.5778499190094819 0.08335021638867035 0  0.8934476994401067 0.1341710538308732 0  0.3910989747205646 -0.1850985530637385 0  0.2900570811000597 0.5137964995259913 0  0.452764781948902 0.4354733387228008 0  0.4254647729341454 -0.4009256457985336 0  0.07502847893507417 -0.7203260015172291 0  0.2868290874409293 -0.7087819889995405 0  0.1884682971157424 -0.5957245682636509 0  0.7140991219034133 0.2413235030500445 0  0.1696702818122023 -0.8041727389113376 0  -0.03976182458011464 0.09606993450337703 0  -0.144895576760654 0.1537255187907586 0  -0.0679575666902707 -0.9068307063252722 0  -0.6878282916538929 0.2367020581784782 0  0.2741614604364078 -0.001581553459900201 0  0.2887101103557479 -0.2647410788026469 0  -0.6958459635813904 -0.5838840913973433 0  0.4522629467729725 -0.586590978490136 0  -0.06798126544149206 0.9071469441830431 0  -0.2251516232954611 -0.8119800599910756 0  0.7531456777622132 0.06094452615252965 0  0.5941459501568455 -0.1872721025851182 0  -0.216657295148843 -0.6276165006205845 0  -0.228089505904504 -0.1874590519798677 0  -0.26831543489379 -0.09525095123827111 0  -0.1134800437664088 -0.1811377597871832 0  -0.3760665750606548 0.5157676543792213 0  -0.1992448771787426 0.6064188495583912 0  -0.5683961947462335 -0.7122395910944973 0  -0.3431915831704673 0.186560664
[...]
<PointData  Scalars="f_1944"> 
<DataArray  type="Float64"  Name="f_1944"  format="ascii">1.4400000000000002e+00  1.4400000000000002e+00  1.4400000000000002e+00  1.4400000000000002e+00  1.4400000000000002e+00  1.4400000000000002e+00  1.4400000000000002e+00  1.4400000000000002e+00  1.4400000000000002e+00  1.4400000000000004e+00  1.4399999999999999e+00  1.4400000000000002e+00  1.4400000000000002e+00  1.4400000000000002e+00  1.4400000000000004e+00  1.4400000000000002e+00  1.4400000000000002e+00  1.4400000000000002e+00  1.4400000000000002e+00  1.4400000000000002e+00  1.4400000000000002e+00  1.4400000000000002e+00  1.4400000000000002e+00  1.4400000000000002e+00  1.4400000000000002e+00  1.4400000000000002e+00  1.4400000000000002e+00  1.4400000000000002e+00  1.4400000000000002e+00  1.4400000000000002e+00  1.4400000000000002e+00  1.4400000000000002e+00  1.4400000000000002e+00  1.4400000000000002e+00  1.4400000000000002e+00  1.4400000000000002e+00  1.4400000000000002e+00  1.4400000000000002e+00  1.4400000000000002e+00  1.4400000000000002e+00  1.4400000000000002e+00  1.4400000000000002e+00  1.4400000000000002e+00  1.4400000000000002e+00  1.4400000000000002e+00  1.4400000000000002e+00  1.4400000000000002e+00  1.4400000000000002e+00  1.4400000000000002e+00  1.4400000000000002e+00  1.4400000000000002e+00  1.4400000000000002e+00  1.4400000000000002e+00  1.4400000000000002e+00  1.4400000000000002e+00  1.4400000000000002e+00  1.4400000000000002e+00  1.4400000000000002e+00  1.4400000000000002e+00  1.4400000000000002e+00  1.4400000000000002e+00  1.4400000000000002e+00  1.4400000000000002e+00  2.2511715250166655e+00  2.0619768907961378e+00  2.0620875943256007e+00  2.0620026546747932e+00  2.0620456712675090e+00  2.0620911285885182e+00  2.0252340490190774e+00  1.9360307659260989e+00  1.9216736992130385e+00  1.9216820412814177e+00  1.9217587219192740e+00  1.8867011696796760e+00  1.8866672578288537e+00  2.1832310473950098e+00  2.1883474646061818e+00  1.8339214386201805e+00  1.8271517807081976e+00  2.1374564690295741e+00  2.1875421553307959e+00  2.1375127002640752e+00  1.8260093499763144e+00  1.8259126319285053e+00  1.8260051057955886e+00  1.8259692121623525e+00  1.8259965958968520e+00  1.8260781961988390e+00  2.2011214799792080e+00  1.7860348633902241e+00  1.8510347220754311e+00  1.7932285111622928e+00  2.0854176192039739e+00  1.8445262504768691e+00  2.0730840100987180e+00  2.2200114941277236e+00  2.2231917707827180e+00  2.1970249408383755e+00  1.7258525546558030e+00  1.7435018664597679e+00  2.0027787893748359e+00  2.0116856047237386e+00  2.0783435693493084e+00  1.7280075535190753e+00  1.7280115960777342e+00  1.7088567540896604e+00  1.7280761117414649e+00  1.7166875123569425e+00  1.7064469320160736e+00  2.1741117406693582e+00  2.0345337883768835e+00  1.9967813190129109e+00  1.9967905293151091e+00  1.9967274868118083e+00  1.9967603346151290e+00  2.1448536016481068e+00  2.0837569891813708e+00  1.7710408789683205e+00  1.7031647271117605e+00  1.7031024821273051e+00  1.7198424588401511e+00  1.7134276517311142e+00  1.7059140186601738e+00  1.7026418007327959e+00  2.2283618189135561e+00  2.1664522962692345e+00  1.9153481788762610e+00  1.6793962619928984e+00  1.9405670423159262e+00  1.9896040484616453e+00  2.1632875098116187e+00  2.1400273106329308e+00  1.9852123783189133e+00  1.6658435922404042e+00  1.6637789799130243e+00  2.2345996875570568e+00  2.2330995965470883e+00  1.9873382496775858e+00  2.1577624949517875e+00  1.6712144503630726e+00  1.9551257295802085e+00  1.6572687449060508e+00  2.1101097847035550e+00  2.1151706012253992e+00  1.9255075763573490e+00  1.9206669412689314e+00  1.9206594012376634e+00  2.1019054253438516e+00  2.2376605907614548e+00  1.8867631952342192e+00  1.6593117056926014e+00  1.6654892712178164e+00  1.6584108667109170e+00  1.6584057752288064e+00  1.6436059887987373e+00  1.6603072726213355e+00  1.9571827511878090e+00  2.1316631207756394e+00  2.1020609624673150e+00  2.0444468595064369e+00  2.0444833194656216e+00  1.8684504212881117e+00  1.9074170447485159e+00  1.8684676570015255e+00  2.1309761812694030e+00  1.6534749380461720e+00  1.6563955231194465e+00  1.6915996515126124e+00  1.8796892725331875e+00  1.8947053227081487e+00  2.1153663529819728e+00  1.6242736834446443e+00  1.6753955580979558e+00  1.6401818868173232e+00  2.0308105405327730e+00  1.8479005325979299e+00  1.6463853794185022e+00  2.0950992280668750e+00  1.6370540388623347e+00  1.6337546822267166e+00  1.9169465627247964e+00  2.2410010049996236e+00  1.9910874401239245e+00  2.1235264791145667e+00  2.0763967878527421e+00  1.6411504609975800e+00  2.1741583543540206e+00  1.8258079755975971e+00  1.8761886519132673e+00  2.2247570977043343e+00  1.7919996545883075e+00  1.6468606645187591e+00  1.6060078770070803e+00  1.6129793350899453e+00  2.1979350683667986e+00  1.6926601687818381e+00  1.6926277783265637e+00  2.1973151223942966e+00  2.1570014988180590e+00  1.9967563918286437e+00  1.7958677751420125e+00  1.8866951595185060e+00  1.9912264443731198e+00  1.5973625668029039e+00  2.1109636526633158e+00  1.9854732312359420e+00  1.9483782671957319e+00  1.9905530902805433e+00  1.8430783352328599e+00  1.7934346045852718e+00  1.9518075154984595e+00  1.8070273689521263e+00  1.7173533378505217e+00  2.2431911493738719e+00  2.2182657356105455e+00  1.5881295672215856e+00  1.8393035491979377e+00  2.1956407964162552e+00  2.1367775664674524e+00  1.5897597231640881e+00  1.8232021423422837e+00  1.5876677494193034e+00  1.6882037779768280e+00  1.8047484328330685e+00  1.9536723359286174e+00  1.9112458275431954e+00  2.1867066877394823e+00  2.1912649509160227e+00  2.2175786161915898e+00  1.9381134031684095e+00  1.9381655757582634e+00  1.5853013251324699e+00  2.1374224070994701e+00  1.6025223605529662e+00  1.7226346144060731e+00  1.5992564364504891e+00  1.6131051092861581e+00  1.5992018258613510e+00  2.1962562881938519e+00  1.5786718770425712e+00  2.2171731366174776e+00  2.0274637423161139e+00  1.5939968893197343e+00  2.0704948203228692e+00  1.6031069238805211e+00  2.2444790341803400e+00  1.7826671168913100e+00  1.8414915060273747e+00  1.7791654790914875e+00  1.5959425031056991e+00  1.5805128929080123e+00  2.0968776907725135e+00  2.0692436123430156e+00  1.9362204224028308e+00  2.0900690617016600e+00  2.0698280699274569e+00  1.7756853968103350e+00  1.5854674211036779e+00  1.5944575649300807e+00  1.5690372369988934e+00  1.9822185362800104e+00  1.9248000728083439e+00  2.0351754242756166e+00  2.0650323959181347e+00  1.9958748419522798e+00  1.9732939581474451e+00  1.7698032478189709e+00  1.8210551392706542e+00  1.5752178344928900e+00  2.2422599312613687e+00  1.5710433991653583e+00  1.9920277402633118e+00  1.5847075843164695e+00  1.7423131535105918e+00  2.1732375667793749e+00  1.8327222924655739e+00  1.7459738595661853e+00  1.7942661712818841e+00  1.8290364299103798e+00  1.6003832454541118e+00  2.2453893420430173e+00  2.1445546589251130e+00  1.5628533452667073e+00  1.5902294731912188e+00  1.5642757786033286e+00  1.8182249659451069e+00  1.8326927379301110e+00  1.8182246057952414e+00  1.8326959675681727e+00  1.7306035748395419e+00  2.2218578836402267e+00  1.8045278204958490e+00  1.5885197793254047e+00  1.5662485478416184e+00  1.9760906723502318e+00  2.0967131702737514e+00  2.0199307568554299e+00  1.9546878220387822e+00  2.0873565116600954e+00  1.9533766445590051e+00  2.0445847912630670e+00  1.9547066836882270e+00  1.5674033992701983e+00  1.5676650597451041e+00  2.1585005178486667e+00  2.1573051486917367e+00  2.0921021877731771e+00  1.7131188138757232e+00  1.5637418977932669e+00  2.1977711982341019e+00  2.2099273313412882e+00  1.8824759579710149e+00  1.7891709485838345e+00  1.5579722521255772e+00  1.9615720645585952e+00  2.0607652914457493e+00  1.9666866264915390e+00  1.7157953725767068e+00  1.5800663837858295e+00  2.1601950701844719e+00  1.5764261971578970e+00  1.5553729025923471e+00  1.5857071220811028e+00  2.0165411776959310e+00  2.0675615940409786e+00  2.1243072209494773e+00  2.0559377172433262e+00  1.8616942109384931e+00  1.8337245799983897e+00  1.7251094537198091e+00  1.9230062094432516e+00  1.7901677780767427e+00  1.8658274115755737e+00  1.5648671426256111e+00  1.7846375988587282e+00  1.5503841256874722e+00  1.9945734662478252e+00  1.5787033313525742e+00  1.7847203974383206e+00  2.0137241016895646e+00  1.5492106420009695e+00  2.1199429805527394e+00  1.9957920092610240e+00  1.5825647237762199e+00  2.1411722918217651e+00  2.1194924270112345e+00  2.0577628560641448e+00  1.8686805294899440e+00  2.1637494080030235e+00  1.5451749621490518e+00  1.7978999002546099e+00  2.1953217434289387e+00  2.1148195769146692e+00  2.1878305706729648e+00  1.5458177742493640e+00  1.5782606865198987e+00  1.9097060476019614e+00  1.6945450937438906e+00  1.7746741204447178e+00  1.5586273748224839e+00  1.9123953805265179e+00  2.2153832197737264e+00  1.9409480332702009e+00  2.1446341646859279e+00  2.1072618586044340e+00  2.1890919208565047e+00  1.9194804548901565e+00  1.8206326896019331e+00  2.0526804639053569e+00  2.0268347606686641e+00  1.5663048995082469e+00  1.9967737227065669e+00  1.9207952178008740e+00  1.9221206844641898e+00  2.1563929487943363e+00  2.0221439202311196e+00  2.2199809888248789e+00  2.1725246823808102e+00  1.8693865053770740e+00  2.0885491903570337e+00  2.0559148326242664e+00  1.7196027629113604e+00  1.9431315255881707e+00  1.9188220311060393e+00  2.0386255679894902e+00  1.8646178977534680e+00  1.8554314218792127e+00  1.5557050630944695e+00  1.8840208004604291e+00  2.1248787176195010e+00  1.5551949422977163e+00  1.5536063779173648e+00  1.7217414012269283e+00  2.2186639347867887e+00  2.1520090713436244e+00  1.6974975727772248e+00  1.9108631738305608e+00  2.0232742048365457e+00  1.8940998880351418e+00  1.8906428214916966e+00  1.7611477057665810e+00  1.5712770648173444e+00  1.7560152767838832e+00  2.1341305834605353e+00  1.5319686298088320e+00  1.7306607315807305e+00  1.7232190390885831e+00  1.5627154513092665e+00  1.5978145429081674e+00  2.2472417762962063e+00  2.1530689340819831e+00  2.0899955469114255e+00  2.1399484988604045e+00  1.9234374008814044e+00  2.0288620410970326e+00  1.8956595937418801e+00  2.0376821438113977e+00  1.7576426857749401e+00  2.1764555737696281e+00  1.8148695024192827e+00  2.1678830804258125e+00  1.5519355743932883e+00  1.5489922433898864e+00  1.5276899882945283e+00  1.7279976726912443e+00  2.2262257364863611e+00  1.7852406641978977e+00  1.7530547769161764e+00  1.7149518556659893e+00  1.7271318116995493e+00  1.8086293388455132e+00  1.5346776807160853e+00  1.5492230615188782e+00  1.9726831503818554e+00  1.9698442664453057e+00  1.7727080957807877e+00  1.7085874760375208e+00  2.0134808620698634e+00  1.6947519907695909e+00  1.7448918615809668e+00  1.7461116683175946e+00  2.2307531354372552e+00  2.2477998218219000e+00  2.1686031673040920e+00  1.6942048331318902e+00  1.8027816894756701e+00  1.4375153876827009e+00  1.5514204860064722e+00  1.6828838236586601e+00  1.5482113012407697e+00  1.6627199520219984e+00  1.5471107003507070e+00  1.5589082724638719e+00  1.9902415109079383e+00  1.8281506613207426e+00  1.9224488001415039e+00  1.6339639329836844e+00  2.1105638411632155e+00  1.7813076340894591e+00  1.7894458307731043e+00  2.0687959653683810e+00  1.4375153876827009e+00  1.9063979330167069e+00  1.8743308470795617e+00  2.2181623837534858e+00  1.7157172377925043e+00  2.0119848475991788e+00  1.8576575665089488e+00  1.9883826787298917e+00  2.1284789186264010e+00  2.0546090896420983e+00  2.0973772709649143e+00  2.0159206785959762e+00  2.0500925922952753e+00  2.0965363247615234e+00  2.0463876277463000e+00  2.2165975919689211e+00  1.4375153876827009e+00  1.5325494620890530e+00  1.9924723811114180e+00  1.7330990708964429e+00  1.7390790333622383e+00  1.4375153876827009e+00  1.5484667117534658e+00  2.1399527454854694e+00  2.1098384790763878e+00  2.1505073830895065e+00  2.1227285341376705e+00  2.2442811988253304e+00  1.6836289906955622e+00  1.4375153876827009e+00  1.5529180848229855e+00  1.6752088651719306e+00  2.0494642784887218e+00  1.5407678567655407e+00  2.0446474467607945e+00  1.8514262673789628e+00  1.6678999145711040e+00  2.1278694258123774e+00  1.6371581830382289e+00  2.0538507189041950e+00  1.8894318680714473e+00  1.5313679184191986e+00  2.1929214949693132e+00  1.7681566887552154e+00  2.0054875958195013e+00  2.1714046424169142e+00  2.0503447109601791e+00  2.0155819933773813e+00  1.6844351231595767e+00  1.8339957270871743e+00  1.9129264614140715e+00  2.0953372320384829e+00  1.9823515707008528e+00  1.7066219447965199e+00  1.6634335962574269e+00  1.9555430651719767e+00  2.0545054824679925e+00  1.8784776228515565e+00  2.1982812114480312e+00  1.6898712578428789e+00  1.8998997817018735e+00  1.6674986441672697e+00  1.4375153876827009e+00  1.9545492585371238e+00  1.4375153876827007e+00  1.7736739439918057e+00  1.8424536367156683e+00  2.0748721619847732e+00  1.4375153876827009e+00  2.0983717824177890e+00  1.5408238981885520e+00  1.7157333083410218e+00  1.7292259815328599e+00  2.1465723497871489e+00  1.7944654655720627e+00  1.8932060512457376e+00  2.0456735684736858e+00  2.2082531654015098e+00  1.8526937817105340e+00  1.6499486393129403e+00  1.6560214583415949e+00  1.5492016320259718e+00  1.8075947453144128e+00  1.9322472730407101e+00  2.1013480592150811e+00  2.1708257231449459e+00  1.5438922944464888e+00  2.1973425055999889e+00  1.6571198484693452e+00  1.4375153876827009e+00  1.8561071364507993e+00  1.6735379550624507e+00  1.5379655442059672e+00  1.8826813624894081e+00  1.9394398574913581e+00  2.1754834390612756e+00  1.7752874864603507e+00  1.7817797243191005e+00  1.7465646190174606e+00  2.2309556926075591e+00  2.2340868708601196e+00  1.7492980583494391e+00  1.5406026448993277e+00  1.8943599820153014e+00  1.6406647303873303e+00  1.9788850077869373e+00  2.0491880552865354e+00  1.6469462349301265e+00  2.1558895439793280e+00  2.0941291202753889e+00  2.0983237823307412e+00  1.8681134498251029e+00  1.7765993398081557e+00  1.4375153876827007e+00  1.9760885661914362e+00  2.2482946212179664e+00  2.2360370603237190e+00  1.9011400842972772e+00  2.0126288345867636e+00  1.5214845206847412e+00  1.9445017989520001e+00  2.1999553645616516e+00  1.8538969511547028e+00  1.8067555053508964e+00  1.9744220724434240e+00  1.6148629885941483e+00  1.4375153876827009e+00  1.5389453060632108e+00  1.6326300379955059e+00  2.2112391109202609e+00  1.8979120264429770e+00  1.6450026620733356e+00  2.1960539593777173e+00  2.2341241227918651e+00  2.2050717910584630e+00  2.0251615774912235e+00  1.4375153876827009e+00  1.9944175124883465e+00  2.1027390351736370e+00  1.7036615791852645e+00  1.6453078675850270e+00  2.0773651996019322e+00  2.0875276664519467e+00  1.7835685670208214e+00  1.7156266367722355e+00  2.1902759055098726e+00  1.8575784515311087e+00  1.5667722757844695e+00  2.0110420539029343e+00  2.0341001162318069e+00  2.0145201858462092e+00  1.9523530884913658e+00  2.1112419735493746e+00  2.1230946148102920e+00  1.7903433081679190e+00  2.0896551930122613e+00  2.0327303079438730e+00  2.1147936951071897e+00  2.0943490389653014e+00  2.1724147742095794e+00  1.5440640255027309e+00  1.8208344210558887e+00  2.0666980018281933e+00  1.8293981149147678e+00  2.0918942803326122e+00  1.8652821796711128e+00  1.9406895741315862e+00  1.9053242196149200e+00  1.5555126355464324e+00  2.0319081087051978e+00  1.5790930122146765e+00  2.2385634221206518e+00  1.5234181268081897e+00  1.8766715650953716e+00  1.5389998996451695e+00  1.5243448262339898e+00  1.7708866494424931e+00  1.7933068595190185e+00  2.0042264803613006e+00  1.4375153876827007e+00  1.5353426827504388e+00  1.9241285998101720e+00  2.0876131572324113e+00  2.1402430133314723e+00  1.4375153876827009e+00  2.0419612002606384e+00  1.7764384412849001e+00  1.7450512842975947e+00  1.7763420834938630e+00  1.7450650597221993e+00  1.5396150495095919e+00  1.5320950955176822e+00  1.6276139486917121e+00  1.6396158887754331e+00  1.5256672213943259e+00  1.5385866877956438e+00  1.9467948449990453e+00  1.7611480329157199e+00  1.7809847839542132e+00  1.9332812160042434e+00  2.1730838654719187e+00  2.1864876125005259e+00  1.9470277987375302e+00  2.1709128921108887e+00  1.5424543974379334e+00  2.2305015811240243e+00  2.2357528099594819e+00  2.1331548106278433e+00  2.2091963753589905e+00  1.8509264238654382e+00  1.9419027176956378e+00  1.6742686798259525e+00  1.6465536052288658e+00  2.2146707825343483e+00  1.6601120714183053e+00  1.6715006595325599e+00  1.6251563683508468e+00  1.4375153876827007e+00  1.5287984906392278e+00  1.6272888534314485e+00  1.6799811359929853e+00  1.9997144405353882e+00  1.9557935355167222e+00  1.8588208284828609e+00  1.7236851465906973e+00  2.1314587600273920e+00  1.9444681248892273e+00  1.8348833771538784e+00  2.2192292347759239e+00  1.8915364525948848e+00  1.9267489277353340e+00  1.9806478960105667e+00  1.5332504632603690e+00  1.6698339550661132e+00  1.4375153876827012e+00  1.5281029897836151e+00  2.1993307196138510e+00  1.7808077379514586e+00  1.5273465944144156e+00  1.6292418943318348e+00  2.1646686930920693e+00  1.9788792005857119e+00  1.9537984087910245e+00  2.0160672810129059e+00  1.6759691122959932e+00  1.6384814679586768e+00  1.8529368112604536e+00  1.8225982440407928e+00  1.8601567185686008e+00  2.0237552859277117e+00  1.8239104156116228e+00  1.6441181579108868e+00  1.5258605014095084e+00  1.6658868847519857e+00  2.2378396979471264e+00  1.6705633124930783e+00  2.1748862586350888e+00  2.2305239748527046e+00  1.7383676110202755e+00  1.8332625165200593e+00  1.7749917489998746e+00  2.0853629560968741e+00  2.1872040282156795e+00  2.2273204253596606e+00  1.9539378541482191e+00  2.0334816193309013e+00  2.2148340538324915e+00  1.8925526510888100e+00  2.1076343021474719e+00  2.2058965490154381e+00  1.5312397574330121e+00  2.1883780023660657e+00  1.8842068418645928e+00  1.9014387674512729e+00  1.9811346932479297e+00  1.9929767092988406e+00  1.8488965255377676e+00  1.7827216679323954e+00  1.6958268912795531e+00  1.5176566882366662e+00  1.7304332311177937e+00  1.6348937935573191e+00  1.5286420551841950e+00  1.4375153876827007e+00  1.9931431694034771e+00  2.0634594428945787e+00  1.4375153876827009e+00  2.1078686800290920e+00  2.0535771021887927e+00  2.1245194807588206e+00  2.0752702245236505e+00  1.9078264320354086e+00  2.2414887392167535e+00  1.5280041998436762e+00  1.6383121644445722e+00  2.0254804668763824e+00  1.6522077011943481e+00  1.6376478525244984e+00  1.8793762607070854e+00  1.5182854808838524e+00  1.6320659352060785e+00  1.5323153258655788e+00  1.5215054188916262e+00  2.1458602623238519e+00  2.2491644157654318e+00  1.6999504677514774e+00  2.1549721101887420e+00  1.6724078234078890e+00  1.5349966752023552e+00  1.4375153876827009e+00  1.4375153876827007e+00  1.9650855299185748e+00  1.9444181299107175e+00  1.9640081421056674e+00  2.1827789620954539e+00  2.1598608111734086e+00  1.7014415408576400e+00  1.9889705316747204e+00  1.4375153876827009e+00  1.5298021046692050e+00  1.4375153876827009e+00  1.6504375902962425e+00  2.1619965970122754e+00  2.1344487329562334e+00  1.9396440407545097e+00  2.0781086648391596e+00  1.9050536058769794e+00  1.9664426787694536e+00  1.9808353618221559e+00  2.1400371042119528e+00  1.5255916623733976e+00  2.1322732828938356e+00  1.5200009010889282e+00  2.0215591263691497e+00  1.6338827994485183e+00  1.6753967662099829e+00  2.1070705781240906e+00  1.9119116550115747e+00  1.9565280904951496e+00  1.9434124195578484e+00  1.9831865541897375e+00  1.4375153876827009e+00  2.1246779329644716e+00  1.5201926293558929e+00  1.6571857486614974e+00  1.7727099741022612e+00  1.4375153876827009e+00  1.4375153876827012e+00  1.5144158782139916e+00  1.6205948735225160e+00  1.5282591144008248e+00  1.4375153876827009e+00  1.5228049007021953e+00  1.5251631002751873e+00  2.2161972545153326e+00  1.4375153876827009e+00  2.1741156941265296e+00  1.6221723067168854e+00  1.6187084095057158e+00  2.0609459553585401e+00  2.0243988567846212e+00  2.0570380924060405e+00  1.8687604987399435e+00  1.7078446502343181e+00  1.8386645571681168e+00  1.8703522027507986e+00  2.0894022578740783e+00  1.9519201159422