<?xml version="1.0"?>
<VTKFile type="UnstructuredGrid"  version="0.1"  >
<UnstructuredGrid>
<Piece  NumberOfPoints="8165" NumberOfCells="16057">
<Points>
<DataArray  type="Float64"  NumberOfComponents="3"  format="ascii">-0.9987569212189223 0.04984588566069748 0  -0.9987569212189223 -0.04984588566069723 0  -0.9888308262251285 -0.1490422661761745 0  -0.969077286229078 -0.2467573976902936 0  -0.9396926207859084 -0.3420201433256687 0  -0.9009688679024191 -0.433883739117558 0  -0.8532908816321557 -0.5214352033794979 0  -0.7971325072229226 -0.6038044103254772 0  -0.7330518718298266 -0.6801727377709191 0  -0.6616858375968597 -0.749781202967734 0  -0.5837436722347905 -0.8119380057158559 0  -0.4999999999999996 -0.8660254037844388 0  -0.4112871031306116 -0.9115058523116731 0  -0.318486650251685 -0.9479273461671316 0  -0.2225209339563146 -0.9749279121818236 0  -0.1243437046474858 -0.992239206600172 0  -0.02493069173807316 -0.9996891820008162 0  0.07473009358642436 -0.9972037971811801 0  0.17364817766693 -0.9848077530122081 0  0.2708404681430051 -0.962624246950012 0  0.3653410243663945 -0.9308737486442045 0  0.4562106573531629 -0.8898718088114687 0  0.5425462638657597 -0.8400259231507713 0  0.6234898018587334 -0.7818314824680299 0  0.698236818086073 -0.7158668492597183 0  0.7660444431189778 -0.6427876096865396 0  0.8262387743159945 -0.5633200580636227 0  0.8782215733702283 -0.4782539786213186 0  0.9214762118704076 -0.3884347962746947 0  0.9555728057861406 -0.2947551744109047 0  0.9801724878485438 -0.1981461431993977 0  0.9950307753654013 -0.09956784659581729 0  1 0 0  0.9950307753654014 0.09956784659581666 0  0.9801724878485438 0.1981461431993976 0  0.9555728057861407 0.2947551744109042 0  0.9214762118704076 0.3884347962746947 0  0.8782215733702285 0.4782539786213182 0  0.8262387743159949 0.5633200580636221 0  0.766044443118978 0.6427876096865393 0  0.6982368180860729 0.7158668492597184 0  0.6234898018587336 0.7818314824680298 0  0.5425462638657594 0.8400259231507714 0  0.4562106573531631 0.8898718088114685 0  0.365341024366395 0.9308737486442042 0  0.2708404681430052 0.962624246950012 0  0.1736481776669304 0.984807753012208 0  0.07473009358642439 0.9972037971811801 0  -0.02493069173807291 0.9996891820008162 0  -0.1243437046474852 0.9922392066001721 0  -0.2225209339563143 0.9749279121818236 0  -0.3184866502516843 0.9479273461671318 0  -0.4112871031306114 0.9115058523116732 0  -0.5000000000000002 0.8660254037844385 0  -0.5837436722347896 0.8119380057158566 0  -0.6616858375968592 0.7497812029677344 0  -0.7330518718298263 0.6801727377709194 0  -0.7971325072229225 0.6038044103254774 0  -0.8532908816321556 0.5214352033794981 0  -0.900968867902419 0.4338837391175582 0  -0.9396926207859083 0.3420201433256689 0  -0.9690772862290778 0.2467573976902938 0  -0.9888308262251285 0.1490422661761747 0  0 -3.33066907387547e-16 0  0.2922351073784631 0.4064742824134499 0  -0.2283892344877995 0.445489683178082 0  -0.5006223129745928 1.249000902703301e-16 0  0.4851417124831425 -0.1235322591753062 0  -0.2283892344877995 -0.4454896831780823 0  0.2244381293544702 -0.4974059892257727 0  0.6017400542999141 0.2190154685308969 0  -0.5581446696297816 -0.3410751076665679 0  0.04888157636984874 0.6522793058172992 0  -0.5581446696297816 0.341075107666568 0  0.5318003682503499 -0.4338991867093802 0  -0.02655531792237059 -0.6858388666358241 0  0.2846822903539273 0.1036158799115578 0  0.2057127456600814 -0.2065170392348358 0  0.5499950705631735 0.4828159805817372 0  0.7365712010015821 -0.03676074036240858 0  -0.3332123644358574 -0.2036218372401125 0  -0.2503111564872963 0.1529619636172051 0  0.02918230080088918 0.3894107416776539 0  0.3119038197247055 0.6693125881472082 0  -0.4533085568472715 0.5829019520470146 0  -0.2086642468434529 0.7083237716612585 0  -0.4533085568472716 -0.5829019520470144 0  -0.7255122091309201 -0.1374604227155882 0  -0.7255122091309201 0.1374604227155883 0  -0.05009008488438581 -0.2556093177500643 0  0.3851790873862939 -0.6671497493660733 0  0.6709552008695683 -0.254288853195751 0  -0.2603565207201746 -0.7190461267637986 0  -0.01274908188504958 -0.4693251432427898 0  0.180383544466418 -0.7001037260965679 0  0.3847163576179377 -0.2973202411100294 0  -0.04995432007195971 0.1995423851608914 0  -0.1678190342621316 -0.0998261742388182 0  0.1403205714878223 0.2316624653136229 0  0.7349932089154046 0.3539540744095583 0  0.7879319621210741 0.1537397135554779 0  0.5698193606007648 0.03876274873020472 0  0.4558478162384035 0.3273736178084163 0  -0.4419539887971066 0.1852825496193718 0  -0.7464085988633791 -0.3252307397060302 0  -0.7464085988633791 0.3252307397060303 0  0.02064469536321903 0.827826152484757 0  -0.6299332241648122 0.5158342404302462 0  -0.6649689944704764 -0.4839644683910337 0  0.70800971084343 -0.4326557279765403 0  -0.3223706017906134 -0.01040698776897026 0  -0.5054246806996193 -0.1745782100334494 0  -0.4005901524784139 -0.416410058674076 0  -0.1042571859310078 0.5683311063186439 0  -0.4005901524784139 0.4164100586740762 0  0.1877980753282089 0.5464445901741976 0  0.1206822009066526 -0.3580378865832485 0  0.4460042554300219 0.1536417414647964 0  0.1738116160219865 0.7624188124093614 0  -0.8321051542296078 6.938893903907228e-17 0  -0.3796152393980441 0.7404669187156475 0  0.4930547478800816 0.6553511379173387 0  0.5542774023972679 -0.610736590905896 0  0.06765100167578174 -0.8273503122395667 0  -0.1263627236672069 -0.8227899655417861 0  0.1732568394682733 -0.03313223201635654 0  0.3244981183472287 -0.0945514879573747 0  0.3964818767539355 0.5278166619520006 0  0.8225174138930775 -0.2094386686091706 0  0.3862762456383678 -0.5051310802049933 0  -0.1330531929054866 -0.5703508657222929 0  -0.177647535364107 0.2946018482597728 0  0.2899951183081392 0.2550067652537422 0  0.08441079514704673 -0.5842176964322349 0  -0.1490115292621843 0.8450863768180583 0  0.2737504708168863 -0.814776874033456 0  -0.142353501387633 0.04833782824577596 0  0.06123953108016653 -0.1447132819643286 0  0.5259110046002531 -0.2630012123273205 0  -0.2028836910358441 -0.2907872567933579 0  0.6961680963734469 0.4954410198387236 0  -0.5896348602892731 0.1963655996997491 0  -0.4687501505461277 -0.7257671910482482 0  -0.3280940097505531 0.2841706514959641 0  0.4262046142439533 0.009495858005196894 0  -0.3034808298607995 -0.575360661977006 0  -0.655077525044371 5.551115123125783e-17 0  -0.2988533483177751 0.5829350221229744 0  0.2606280324088774 -0.3621577007324048 0  0.06109885742534778 0.1213198421233271 0  0.5883360859796991 0.3533614497113013 0  0.3043653793591053 0.8070919162104671 0  -0.5977628423620102 -0.6160630342157603 0  -0.5768580796341715 0.6421662051486873 0  -0.8346144062426474 -0.2203666761707024 0  -0.8558623315149202 0.173016302948436 0  0.8612845745432718 0.03178923580507788 0  0.6132723301615656 -0.08714674393221392 0  0.1628110939985944 0.3655319136460566 0  -0.09567032507741235 0.4355151996776715 0  0.05746843722344426 0.5194633991763268 0  -0.436019945709395 -0.2881300360956253 0  -0.07596061144871569 0.6983647226519493 0  -0.6275255320060281 -0.2275110374504959 0  -0.5226873339000571 -0.469341295132707 0  -0.1125799974105092 -0.3851292258287221 0  0.619011024823678 0.6063877701182406 0  -0.2763102364367199 0.8192202812544818 0  0.7745348125424459 -0.3258032396315157 0  -0.518060795045081 0.4596654131466001 0  0.6694847456509949 0.1140659043624926 0  -0.4164279919677704 -0.08967120904698817 0  -0.3237023997545292 -0.8247802633914654 0  0.8468194484731224 -0.0896151494438422 0  0.4258293249936974 0.7649442768810276 0  -0.4452381011188446 0.304057250497095 0  -0.1429733645462529 -0.705840003340848 0  0.6708719183416081 -0.5559925608496961 0  -0.3198578181913611 -0.3250798040022018 0  0.4976994035910101 -0.722786655132186 0  0.3915320294649418 -0.7878115305337891 0  0.3013332399688708 -0.585568912488973 0  -0.05021176719619284 -0.1065627974183157 0  -0.5778499190094819 -0.08523074965409963 0  -0.4069729011762343 0.07227633527667994 0  0.1017761104609 -0.4710042480313572 0  0.8313172614604811 0.2723171946851911 0  -0.06237900155959543 0.3161471027625475 0  0.7228946573831219 -0.1512956814359499 0  0.6036725534446189 -0.345871914207299 0  0.1705451400955359 0.08284736515785829 0  -0.3661633096233823 -0.6724877309579722 0  -0.7432283975853058 0.454177419441099 0  -0.7886115584549602 -0.4294549654143447 0  0.210520553651675 0.8682430176792441 0  0.1024345016269031 -0.2481784681422972 0  -0.8322817485593992 -0.1101956133222516 0  -0.477755773363484 0.6903516518401452 0  0.03638745749539424 0.2677067415209754 0  0.005824306220235123 -0.3559598780800155 0  -0.02393057554055716 -0.5773091896046807 0  -0.656853418329663 0.3875346040967115 0  0.2023789243848113 0.6558288354998336 0  -0.5778499190094819 0.08335021638867035 0  0.8934476994401067 0.1341710538308732 0  0.3910989747205646 -0.1850985530637385 0  0.2900570811000597 0.5137964995259913 0  0.452764781948902 0.4354733387228008 0  0.4254647729341454 -0.4009256457985336 0  0.07502847893507417 -0.7203260015172291 0  0.2868290874409293 -0.7087819889995405 0  0.1884682971157424 -0.5957245682636509 0  0.7140991219034133 0.2413235030500445 0  0.1696702818122023 -0.8041727389113376 0  -0.03976182458011464 0.09606993450337703 0  -0.144895576760654 0.1537255187907586 0  -0.0679575666902707 -0.9068307063252722 0  -0.6878282916538929 0.2367020581784782 0  0.2741614604364078 -0.001581553459900201 0  0.2887101103557479 -0.2647410788026469 0  -0.6958459635813904 -0.5838840913973433 0  0.4522629467729725 -0.586590978490136 0  -0.06798126544149206 0.9071469441830431 0  -0.2251516232954611 -0.8119800599910756 0  0.7531456777622132 0.06094452615252965 0  0.5941459501568455 -0.1872721025851182 0  -0.216657295148843 -0.6276165006205845 0  -0.228089505904504 -0.1874590519798677 0  -0.26831543489379 -0.09525095123827111 0  -0.1134800437664088 -0.1811377597871832 0  -0.3760665750606548 0.5157676543792213 0  -0.1992448771787426 0.6064188495583912 0  -0.5683961947462335 -0.7122395910944973 0  -0.3431915831704673 0.186560664
[...]
<PointData  Scalars="f_2164"> 
<DataArray  type="Float64"  Name="f_2164"  format="ascii">1.4900000000000002e+00  1.4900000000000002e+00  1.4900000000000002e+00  1.4900000000000002e+00  1.4900000000000002e+00  1.4900000000000002e+00  1.4900000000000002e+00  1.4900000000000002e+00  1.4900000000000002e+00  1.4900000000000004e+00  1.4900000000000000e+00  1.4900000000000002e+00  1.4900000000000002e+00  1.4900000000000002e+00  1.4900000000000004e+00  1.4900000000000002e+00  1.4900000000000002e+00  1.4900000000000002e+00  1.4900000000000002e+00  1.4900000000000002e+00  1.4900000000000002e+00  1.4900000000000002e+00  1.4900000000000002e+00  1.4900000000000002e+00  1.4900000000000002e+00  1.4900000000000002e+00  1.4900000000000002e+00  1.4900000000000002e+00  1.4900000000000002e+00  1.4900000000000002e+00  1.4900000000000002e+00  1.4900000000000002e+00  1.4900000000000002e+00  1.4900000000000002e+00  1.4900000000000002e+00  1.4900000000000002e+00  1.4900000000000002e+00  1.4900000000000002e+00  1.4900000000000002e+00  1.4900000000000002e+00  1.4900000000000002e+00  1.4900000000000002e+00  1.4900000000000002e+00  1.4900000000000002e+00  1.4900000000000002e+00  1.4900000000000002e+00  1.4900000000000002e+00  1.4900000000000002e+00  1.4900000000000002e+00  1.4900000000000002e+00  1.4900000000000002e+00  1.4900000000000002e+00  1.4900000000000002e+00  1.4900000000000002e+00  1.4900000000000002e+00  1.4900000000000002e+00  1.4900000000000002e+00  1.4900000000000002e+00  1.4900000000000002e+00  1.4900000000000002e+00  1.4900000000000002e+00  1.4900000000000002e+00  1.4900000000000002e+00  2.3467303001827471e+00  2.1424391659228021e+00  2.1425565949590064e+00  2.1424667070291146e+00  2.1425122200305142e+00  2.1425604230106567e+00  2.1031683732898068e+00  2.0082985086925413e+00  1.9930888806706795e+00  1.9930980267216083e+00  1.9931753312071117e+00  1.9560977403774926e+00  1.9560624231379748e+00  2.2729321177043258e+00  2.2784711955732218e+00  1.9004355600542702e+00  1.8933074690889169e+00  2.2234975208249725e+00  2.2775989138176422e+00  2.2235569618949191e+00  1.8921043961742043e+00  1.8920065114328779e+00  1.8921013785365803e+00  1.8920634092848583e+00  1.8920939101167229e+00  1.8921753797287506e+00  2.2923138959590275e+00  1.8500919597950285e+00  1.9184617986229757e+00  1.8576442952927208e+00  2.1675545711167730e+00  1.9116041133676143e+00  2.1543332515660620e+00  2.3128175773794339e+00  2.3162733569989831e+00  2.2878724526557561e+00  1.7870168173083021e+00  1.8054930068989388e+00  2.0792279192558820e+00  2.0887185656417535e+00  2.1599684685246605e+00  1.7892741212447811e+00  1.7892770113572698e+00  1.7692432494807790e+00  1.7893432431767986e+00  1.7774321681177667e+00  1.7667256723085065e+00  2.2630653468839546e+00  2.1130962918322509e+00  2.0728396502240320e+00  2.0728485166349899e+00  2.0727828534820749e+00  2.0728173974123321e+00  2.2314710730783931e+00  2.1657739049088462e+00  1.8343579136120161e+00  1.7632979881936737e+00  1.7632328313121257e+00  1.7807332614861047e+00  1.7740244428635275e+00  1.7661706434834832e+00  1.7627515466942874e+00  2.3218941767405594e+00  2.2547853418584292e+00  1.9863895725222236e+00  1.7384752469631695e+00  2.0131096630905967e+00  2.0651985938665991e+00  2.2513665945264192e+00  2.2262678270703682e+00  2.0605275766642031e+00  1.7243369091255278e+00  1.7221831429297880e+00  2.3286799444192741e+00  2.3270477931632585e+00  2.0627887427565321e+00  2.2453993722178747e+00  1.7299364154463170e+00  2.0285538340845894e+00  1.7153947593379768e+00  2.1940653762581825e+00  2.1995072725668128e+00  1.9971486471689408e+00  1.9920217405116223e+00  1.9920141579565953e+00  2.1852498300766476e+00  2.3320115414022027e+00  1.9561632460137148e+00  1.7175251299159704e+00  1.7239654926578321e+00  1.7165851378919728e+00  1.7165800062216694e+00  1.7011573739545760e+00  1.7185644001204290e+00  2.0307371472089848e+00  2.2172562488234018e+00  2.1854179285546373e+00  2.1236895210838069e+00  2.1237279984185728e+00  1.9368292784260950e+00  1.9779969697033815e+00  1.9368459498734583e+00  2.2165166225107917e+00  1.7114409038249390e+00  1.7144857754429814e+00  1.7512145068779605e+00  1.9486919568499290e+00  1.9645565728054977e+00  2.1997179692955227e+00  1.6810283703113642e+00  1.7343008727682854e+00  1.6975916031990024e+00  2.1091207851735287e+00  1.9151576316113843e+00  1.7040515231913023e+00  2.1779408064236412e+00  1.6943335012206047e+00  1.6908969080675007e+00  1.9880842061840707e+00  2.3356485614560860e+00  2.0667759526708886e+00  2.2084952379097111e+00  2.1578820379790606e+00  1.6986017452093229e+00  2.2631164906667900e+00  1.8918941151851705e+00  1.9449941492765637e+00  2.3179747956780701e+00  1.8563534944482363e+00  1.7045474575669979e+00  1.6620246667336989e+00  1.6692761267567811e+00  2.2888591172777488e+00  1.7523222208763167e+00  1.7522881632385148e+00  2.2881869381374300e+00  2.2445777243397722e+00  2.0728138553197932e+00  1.8604175989502643e+00  1.9560914559896732e+00  2.0669261632143199e+00  1.6530400267972436e+00  2.1949840525449491e+00  2.0608032957731703e+00  2.0213941388146428e+00  2.0662083881964795e+00  1.9100785046515507e+00  1.8578595673862033e+00  2.0250322939125089e+00  1.8721430399525212e+00  1.7781304169206520e+00  2.3380339017392737e+00  2.3109209678457483e+00  1.6434463605418701e+00  1.9061001962610058e+00  2.2863726107276086e+00  2.2227650657581353e+00  1.6451379043301020e+00  1.8891514977925350e+00  1.6429646745842592e+00  1.7476717319464592e+00  1.8697484195450829e+00  2.0270100697616344e+00  1.9820477446447784e+00  2.2766944134563825e+00  2.2816311816126009e+00  2.3101744053423294e+00  2.0105067002264154e+00  2.0105616298117104e+00  1.6405048240111570e+00  2.2234596786434713e+00  1.6584013959354329e+00  1.7836544552193112e+00  1.6550046408196897e+00  1.6694072992522420e+00  1.6549496578749454e+00  2.2870395943995927e+00  1.6336193912390709e+00  2.3097340478534858e+00  2.1055488528535875e+00  1.6495424768376135e+00  2.1515579596537564e+00  1.6590097782514379e+00  2.3394367500889097e+00  1.8465534842633973e+00  1.9084072438898623e+00  1.8428799954115289e+00  1.6515619401729171e+00  1.6355301338012704e+00  2.1798517058645759e+00  2.1502191211327184e+00  2.0084986120834603e+00  2.1725451465379497e+00  2.1508444061249978e+00  1.8392278691697053e+00  1.6406801846926413e+00  1.6500199604977654e+00  1.6236173580384867e+00  2.0573403567196564e+00  1.9964000823518895e+00  2.1137832133046022e+00  2.1457102627364422e+00  2.0718737856047831e+00  2.0478510218544348e+00  1.8330564770809810e+00  1.8868926002672826e+00  1.6300338676769781e+00  2.3370195335822723e+00  1.6256995258780385e+00  2.0677782893397665e+00  1.6398886166056021e+00  1.8042490398456321e+00  2.2621198873782471e+00  1.8991723607292523e+00  1.8080829102034250e+00  1.8587338437636876e+00  1.8952905040702985e+00  1.6561780660687344e+00  2.3404284916138400e+00  2.2311486952547792e+00  1.6172002823064047e+00  1.6456230029453913e+00  1.6186730987191098e+00  1.8839174193897814e+00  1.8991400491434607e+00  1.8839168398524877e+00  1.8991433201405334e+00  1.7919905764440656e+00  2.3148236712584489e+00  1.8695145088679470e+00  1.6438476544555396e+00  1.6207219142838212e+00  2.0508256901877711e+00  2.1796746212894145e+00  2.0975113902519769e+00  2.0280878633337616e+00  2.1696332827553779e+00  2.0266974011133301e+00  2.1238353137764037e+00  2.0281083254800709e+00  1.6219226744990263e+00  1.6221918173618579e+00  2.2461970482648987e+00  2.2449063349760530e+00  2.1747257675249294e+00  1.7737015686514135e+00  1.6181203112121363e+00  2.2886809485178996e+00  2.3018666173016129e+00  1.9516342513083387e+00  1.8533846258894473e+00  1.6121354304925175e+00  2.0353973650158390e+00  2.1411416865131088e+00  2.0408307717781602e+00  1.7765006174705424e+00  1.6350684339967787e+00  2.2480259726397946e+00  1.6312889359381262e+00  1.6094392290384092e+00  1.6409258583889161e+00  2.0938958795593172e+00  2.1484181758145953e+00  2.2093365623217189e+00  2.1359761875957002e+00  1.9296977060275717e+00  1.9002263323866144e+00  1.7862417150507190e+00  1.9944971521509096e+00  1.8544282009262159e+00  1.9340583063906227e+00  1.6192900461518585e+00  1.8486217939607648e+00  1.6042622327441745e+00  2.0704881237107435e+00  1.6336537215285727e+00  1.8487096473035467e+00  2.0908903538819712e+00  1.6030469694412479e+00  2.2046406515961836e+00  2.0717854068119888e+00  1.6376649246966326e+00  2.2275014202747569e+00  2.2041552646033038e+00  2.1379289968337094e+00  1.9370707933463291e+00  2.2518651761383128e+00  1.5988638058545006e+00  1.8625511165788227e+00  2.2860263405971026e+00  2.1991291188778348e+00  2.2779110044336988e+00  1.5995290465166392e+00  1.6331911836713311e+00  1.9804185111789672e+00  1.7542918705922284e+00  1.8381669920112007e+00  1.6128120291193977e+00  1.9832658384960902e+00  2.3077900068962864e+00  2.0135143851390871e+00  2.2312346475369442e+00  2.1910055075709582e+00  2.2792773388028618e+00  1.9907641212249814e+00  1.8864493529093096e+00  2.1324912098805053e+00  2.1048773474521214e+00  1.6207787549516302e+00  2.0728295988532923e+00  1.9921561320408403e+00  1.9935618822573580e+00  2.2439207906917411e+00  2.0998720998918134e+00  2.3127842707716044e+00  2.2613493161590088e+00  1.9378168767651180e+00  2.1709127501366208e+00  2.1359514537106508e+00  1.7804813686135310e+00  2.0158280914385780e+00  1.9900694726783756e+00  2.1174685205539658e+00  1.9327846954286625e+00  1.9230959050122625e+00  1.6097821957597993e+00  1.9532665839637819e+00  2.2099517656488650e+00  1.6092509802214348e+00  1.6076045254790807e+00  1.7827200157521053e+00  2.3113532281947129e+00  2.2391892894176197e+00  1.7573764051016605e+00  1.9816442620269137e+00  2.1010772716580308e+00  1.9639175968961680e+00  1.9602613155595472e+00  1.8239813269219103e+00  1.6259434591687494e+00  1.8186004552412030e+00  2.2199139409646262e+00  1.5851721103921648e+00  1.7920489848378731e+00  1.7842631308373906e+00  1.6170531293193318e+00  1.6535091071893562e+00  2.3424469694727859e+00  2.2403338283806957e+00  2.1724654513987649e+00  2.2261832432516497e+00  1.9949545961797885e+00  2.1070409682587989e+00  1.9655620077447855e+00  2.1164609861614512e+00  1.8203068566337888e+00  2.2656007980487298e+00  1.8803866584049109e+00  2.2563323501943047e+00  1.6058721994467628e+00  1.6028190559323510e+00  1.5807392084503460e+00  1.7892646424926479e+00  2.3195714262318061e+00  1.8492571623380705e+00  1.8155006366483541e+00  1.7756193715810080e+00  1.7883577522699681e+00  1.8738267558541917e+00  1.5879827998095106e+00  1.6030592946467848e+00  2.0472039374461382e+00  2.0441868007125104e+00  1.8361060261123596e+00  1.7689638633062064e+00  2.0906334360336731e+00  1.7545094796572671e+00  1.8069501328253170e+00  1.8082267373401519e+00  2.3244950943142708e+00  2.3430551286426509e+00  2.2571100237589556e+00  1.7539371260645473e+00  1.8676799546571581e+00  1.4875153876827010e+00  1.6053382308120929e+00  1.7421154211127703e+00  1.6020069111861410e+00  1.7210783284651248e+00  1.6008680610388890e+00  1.6131044699767594e+00  2.0658786189241889e+00  1.8943594855795036e+00  1.9939118917497314e+00  1.6911150583558183e+00  2.1945539585424707e+00  1.8451273554821581e+00  1.8536716437773313e+00  2.1497397117072294e+00  1.4875153876827010e+00  1.9769210812510778e+00  1.9430340897811853e+00  2.3108086520112980e+00  1.7764172142881818e+00  2.0890372002946642e+00  1.9254431033624670e+00  2.0639002965077675e+00  2.2138273637254184e+00  2.1345549652931517e+00  2.1803877297866281e+00  2.0932347196297116e+00  2.1297244626302128e+00  2.1794851507370732e+00  2.1257632027366471e+00  2.3091090186828778e+00  1.4875153876827010e+00  1.5857752460812844e+00  2.0682533091641200e+00  1.7946006215903016e+00  1.8008639309033554e+00  1.4875153876827010e+00  1.6022770941940501e+00  2.2261878176859460e+00  2.1937741720801789e+00  2.2375695514255192e+00  2.2076385187733387e+00  2.3392212512192572e+00  1.7428949026028426e+00  1.4875153876827010e+00  1.6068906896686708e+00  1.7341082615176844e+00  2.1290517600663592e+00  1.5942937855481345e+00  2.1239036061030787e+00  1.9188756907909288e+00  1.7264824638575866e+00  2.2131711946266219e+00  1.6944406815765718e+00  2.1337440126046787e+00  1.9589840715878089e+00  1.5845494057033445e+00  2.2834259003643496e+00  1.8313306204929332e+00  2.0821126623738286e+00  2.2601387290836255e+00  2.1299944236502539e+00  2.0928701961933216e+00  1.7437365390983401e+00  1.9005125177618967e+00  1.9838291207060215e+00  2.1781983497162458e+00  2.0574836411485689e+00  1.7669116830798508e+00  1.7218219211040979e+00  2.0289973069925984e+00  2.1344443706411491e+00  1.9474120545637947e+00  2.2892345750265339e+00  1.7494106710859569e+00  1.9700470228872398e+00  1.7260629764000224e+00  1.4875153876827010e+00  2.0279422182474875e+00  1.4875153876827008e+00  1.8371207061749424e+00  1.9094194726297011e+00  2.1562490174345634e+00  1.4875153876827010e+00  2.1814562253530294e+00  1.5943526780329316e+00  1.7764358869911070e+00  1.7905492134090690e+00  2.2333249731082838e+00  1.8589455578541407e+00  1.9629706875402537e+00  2.1250000141394909e+00  2.3000497620161111e+00  1.9202111213782549e+00  1.7077667542439556e+00  1.7140956868722390e+00  1.6030357726563429e+00  1.8727379427781419e+00  2.0042872435873287e+00  2.1846525091835693e+00  2.2595121571571610e+00  1.5975299825483655e+00  2.2882170997295570e+00  1.7152406047277839e+00  1.4875153876827010e+00  1.9238080880451287e+00  1.7323647724588003e+00  1.5913835888029062e+00  1.9518520071846714e+00  2.0119127992172769e+00  2.2645484782668479e+00  1.8388117865605134e+00  1.8456221649616182e+00  1.8087014801746115e+00  2.3247153738486945e+00  2.3281219908692448e+00  1.8115647090069475e+00  1.5941198795650824e+00  1.9641892471260023e+00  1.6980927943500495e+00  2.0537945282072751e+00  2.1287577187240392e+00  1.7046371423192601e+00  2.2433777117150884e+00  2.1769002200947156e+00  2.1814052889589326e+00  1.9364723545738403e+00  1.8401860898034375e+00  1.4875153876827008e+00  2.0508225763818131e+00  2.3435943930266068e+00  2.3302444090868795e+00  1.9713600774869469e+00  2.0897237685383936e+00  1.5743072000843210e+00  2.0172817604154241e+00  2.2910492080342220e+00  1.9214760532823350e+00  1.8718576011847929e+00  2.0490515693705142e+00  1.6712387008937921e+00  1.4875153876827010e+00  1.5924007039250396e+00  1.6897287637031158e+00  2.3032904998356929e+00  1.9679457305944648e+00  1.7026122974603122e+00  2.2868201208850980e+00  2.3281627116305885e+00  2.2965981674812181e+00  2.1030924372159121e+00  1.4875153876827010e+00  2.0703224967062046e+00  2.1861460633483136e+00  1.7638162620229751e+00  1.7029305818649134e+00  2.1589213583535112e+00  2.1698171547236145e+00  1.8475035006894205e+00  1.7763258938633282e+00  2.2805597378205524e+00  1.9253601925684196e+00  1.6212664699313026e+00  2.0880320513286295e+00  2.1126329642873025e+00  2.0917398867152976e+00  2.0256102137304119e+00  2.1952831342372474e+00  2.2080311380612065e+00  1.8546138732401329e+00  2.1720999497159963e+00  2.1111711780025457e+00  2.1991018756249954e+00  2.1771383325719347e+00  2.2612308448283005e+00  1.5977121812196295e+00  1.8866631918859866e+00  2.1474928195817307e+00  1.8956725370575744e+00  2.1745030845042246e+00  1.9334832628795997e+00  2.0132399641772842e+00  1.9757851091476617e+00  1.6095844206358250e+00  2.1102912991187588e+00  1.6340573055394392e+00  2.3329942917438702e+00  1.5763146683399722e+00  1.9455055615282761e+00  1.5924588201493759e+00  1.5772689088422747e+00  1.8341944850931402e+00  1.8577255882607975e+00  2.0807697412788637e+00  1.4875153876827008e+00  1.5886653540214013e+00  1.9956861339970950e+00  2.1699082961553202e+00  2.2265001035526080e+00  1.4875153876827010e+00  2.1210327534672015e+00  1.8400161898969118e+00  1.8071180042996322e+00  1.8399182951435460e+00  1.8071325975975343e+00  1.5930972967913004e+00  1.5853035825944106e+00  1.6845078305964054e+00  1.6970023071535587e+00  1.5786389957152049e+00  1.5920317275821325e+00  2.0197146481323598e+00  1.8239816008738414e+00  1.8447882932450705e+00  2.0053843441408188e+00  2.2619536080000309e+00  2.2764575730071552e+00  2.0199590205964344e+00  2.2596067872347958e+00  1.5960390800488091e+00  2.3242212684402599e+00  2.3299349638513305e+00  2.2188629907560169e+00  2.3010733845099902e+00  1.9183484899995451e+00  2.0145256964616007e+00  1.7331235585145854e+00  1.7042302551578874e+00  2.3070161588437919e+00  1.7183614071923909e+00  1.7302390527839646e+00  1.6819471920941522e+00  1.4875153876827008e+00  1.5818853279636702e+00  1.6841659837911775e+00  1.7390869137768612e+00  2.0759645368553858e+00  2.0292631221337709e+00  1.9266716591580453e+00  1.7847497527787242e+00  2.2170362783121824e+00  2.0172454717524535e+00  1.9014501601460436e+00  2.3119676687203219e+00  1.9612058353208186e+00  1.9984632647615019e+00  2.0556715816114299e+00  1.5864989048268663e+00  1.7284975366243476e+00  1.4875153876827012e+00  1.5811685735251926e+00  2.2903719860623015e+00  1.8446006982898446e+00  1.5803823952052312e+00  1.6861984663652918e+00  2.2528591715792441e+00  2.0537903576790271e+00  2.0271462725987837e+00  2.0933907529877867e+00  1.7348975899157204e+00  1.6958218896056121e+00  1.9204680795724407e+00  1.8885160831670456e+00  1.9280809183728056e+00  2.1015906654401597e+00  1.8898975164644551e+00  1.7016913311112363e+00  1.5788417216255428e+00  1.7243825720185859e+00  2.3322066650418671e+00  1.7292579650350550e+00  2.2639035008755726e+00  2.3242459573940364e+00  1.8001188524799889e+00  1.8997400131158784e+00  1.8384993685243101e+00  2.1674959564750584e+00  2.2772326570035752e+00  2.3207615286773859e+00  2.0272931825866167e+00  2.1119743084085467e+00  2.3071934264730376e+00  1.9622814987806494e+00  2.1914056326400351e+00  2.2974928751925781e+00  1.5844123063745341e+00  2.2785044551231000e+00  1.9534610033979514e+00  1.9716734082780198e+00  2.0561893085469740e+00  2.0687886142939660e+00  1.9162088319956436e+00  1.8466136700918347e+00  1.7556310546173055e+00  1.5703440208702915e+00  1.7918129637383671e+00  1.6920833138579250e+00  1.5817194039263300e+00  1.4875153876827008e+00  2.0689654918373379e+00  2.1440249224635672e+00  1.4875153876827010e+00  2.1916582393617148e+00  2.1334505105760533e+00  2.2095647682565587e+00  2.1566754555979535e+00  1.9784310157815623e+00  2.3361797839695617e+00  1.5810637339493485e+00  1.6956437693471189e+00  2.1034314742611158e+00  1.7101211214982583e+00  1.6949547138266012e+00  1.9483623453832553e+00  1.5709939150932808e+00  1.6891396477629510e+00  1.5855275200266006e+00  1.5743297556440674e+00  2.2325570139444313e+00  2.3445423602857698e+00  1.7599386875277780e+00  2.2423868656929136e+00  1.7311826824306635e+00  1.5883095686863511e+00  1.4875153876827010e+00  1.4875153876827008e+00  2.0391309093312358e+00  2.0171917537301818e+00  2.0379861289694610e+00  2.2724417421578069e+00  2.2476651125131535e+00  1.7614950555878250e+00  2.0645252368819502e+00  1.4875153876827010e+00  1.5829239903474777e+00  1.4875153876827010e+00  1.7082767719851675e+00  2.2499725391355407e+00  2.2202572342340283e+00  2.0121308511572851e+00  2.1597174574507561e+00  1.9754968247117370e+00  2.0405735512054717e+00  2.0558698527485415e+00  2.2262789084167283e+00  1.5785629652061122e+00  2.2179136208873711e+00  1.5727741821409096e+00  2.0992477983096114e+00  1.6910323425887697e+00  1.7343009552604569e+00  2.1907993358907443e+00  1.9827522764195142e+00  2.0300422962293521e+00  2.0161259151506092e+00  2.0583702858871780e+00  1.4875153876827010e+00  2.2097346811391869e+00  1.5729690878461720e+00  1.7153068146227766e+00  1.8361068375967371e+00  1.4875153876827010e+00  1.4875153876827012e+00  1.5669863599595528e+00  1.6771974243626948e+00  1.5813261528485232e+00  1.4875153876827010e+00  1.5756764971436092e+00  1.5781205886264567e+00  2.3086742263821920e+00  1.4875153876827010e+00  2.2630697234260819e+00  1.6788402353566418e+00  1.6752373298471828e+00  2.1413349983652137e+00  2.1022793733428164e+00  2.1371529190151444e+00  1.9371559124667215e+00  1.7681856857987965e+00  1.9054295792601712e+00  1.9388350761400230e+00  2.1718294469324984e+00  2.0251522311170