<?xml version="1.0"?>
<VTKFile type="UnstructuredGrid"  version="0.1"  >
<UnstructuredGrid>
<Piece  NumberOfPoints="8165" NumberOfCells="16057">
<Points>
<DataArray  type="Float64"  NumberOfComponents="3"  format="ascii">-0.9987569212189223 0.04984588566069748 0  -0.9987569212189223 -0.04984588566069723 0  -0.9888308262251285 -0.1490422661761745 0  -0.969077286229078 -0.2467573976902936 0  -0.9396926207859084 -0.3420201433256687 0  -0.9009688679024191 -0.433883739117558 0  -0.8532908816321557 -0.5214352033794979 0  -0.7971325072229226 -0.6038044103254772 0  -0.7330518718298266 -0.6801727377709191 0  -0.6616858375968597 -0.749781202967734 0  -0.5837436722347905 -0.8119380057158559 0  -0.4999999999999996 -0.8660254037844388 0  -0.4112871031306116 -0.9115058523116731 0  -0.318486650251685 -0.9479273461671316 0  -0.2225209339563146 -0.9749279121818236 0  -0.1243437046474858 -0.992239206600172 0  -0.02493069173807316 -0.9996891820008162 0  0.07473009358642436 -0.9972037971811801 0  0.17364817766693 -0.9848077530122081 0  0.2708404681430051 -0.962624246950012 0  0.3653410243663945 -0.9308737486442045 0  0.4562106573531629 -0.8898718088114687 0  0.5425462638657597 -0.8400259231507713 0  0.6234898018587334 -0.7818314824680299 0  0.698236818086073 -0.7158668492597183 0  0.7660444431189778 -0.6427876096865396 0  0.8262387743159945 -0.5633200580636227 0  0.8782215733702283 -0.4782539786213186 0  0.9214762118704076 -0.3884347962746947 0  0.9555728057861406 -0.2947551744109047 0  0.9801724878485438 -0.1981461431993977 0  0.9950307753654013 -0.09956784659581729 0  1 0 0  0.9950307753654014 0.09956784659581666 0  0.9801724878485438 0.1981461431993976 0  0.9555728057861407 0.2947551744109042 0  0.9214762118704076 0.3884347962746947 0  0.8782215733702285 0.4782539786213182 0  0.8262387743159949 0.5633200580636221 0  0.766044443118978 0.6427876096865393 0  0.6982368180860729 0.7158668492597184 0  0.6234898018587336 0.7818314824680298 0  0.5425462638657594 0.8400259231507714 0  0.4562106573531631 0.8898718088114685 0  0.365341024366395 0.9308737486442042 0  0.2708404681430052 0.962624246950012 0  0.1736481776669304 0.984807753012208 0  0.07473009358642439 0.9972037971811801 0  -0.02493069173807291 0.9996891820008162 0  -0.1243437046474852 0.9922392066001721 0  -0.2225209339563143 0.9749279121818236 0  -0.3184866502516843 0.9479273461671318 0  -0.4112871031306114 0.9115058523116732 0  -0.5000000000000002 0.8660254037844385 0  -0.5837436722347896 0.8119380057158566 0  -0.6616858375968592 0.7497812029677344 0  -0.7330518718298263 0.6801727377709194 0  -0.7971325072229225 0.6038044103254774 0  -0.8532908816321556 0.5214352033794981 0  -0.900968867902419 0.4338837391175582 0  -0.9396926207859083 0.3420201433256689 0  -0.9690772862290778 0.2467573976902938 0  -0.9888308262251285 0.1490422661761747 0  0 -3.33066907387547e-16 0  0.2922351073784631 0.4064742824134499 0  -0.2283892344877995 0.445489683178082 0  -0.5006223129745928 1.249000902703301e-16 0  0.4851417124831425 -0.1235322591753062 0  -0.2283892344877995 -0.4454896831780823 0  0.2244381293544702 -0.4974059892257727 0  0.6017400542999141 0.2190154685308969 0  -0.5581446696297816 -0.3410751076665679 0  0.04888157636984874 0.6522793058172992 0  -0.5581446696297816 0.341075107666568 0  0.5318003682503499 -0.4338991867093802 0  -0.02655531792237059 -0.6858388666358241 0  0.2846822903539273 0.1036158799115578 0  0.2057127456600814 -0.2065170392348358 0  0.5499950705631735 0.4828159805817372 0  0.7365712010015821 -0.03676074036240858 0  -0.3332123644358574 -0.2036218372401125 0  -0.2503111564872963 0.1529619636172051 0  0.02918230080088918 0.3894107416776539 0  0.3119038197247055 0.6693125881472082 0  -0.4533085568472715 0.5829019520470146 0  -0.2086642468434529 0.7083237716612585 0  -0.4533085568472716 -0.5829019520470144 0  -0.7255122091309201 -0.1374604227155882 0  -0.7255122091309201 0.1374604227155883 0  -0.05009008488438581 -0.2556093177500643 0  0.3851790873862939 -0.6671497493660733 0  0.6709552008695683 -0.254288853195751 0  -0.2603565207201746 -0.7190461267637986 0  -0.01274908188504958 -0.4693251432427898 0  0.180383544466418 -0.7001037260965679 0  0.3847163576179377 -0.2973202411100294 0  -0.04995432007195971 0.1995423851608914 0  -0.1678190342621316 -0.0998261742388182 0  0.1403205714878223 0.2316624653136229 0  0.7349932089154046 0.3539540744095583 0  0.7879319621210741 0.1537397135554779 0  0.5698193606007648 0.03876274873020472 0  0.4558478162384035 0.3273736178084163 0  -0.4419539887971066 0.1852825496193718 0  -0.7464085988633791 -0.3252307397060302 0  -0.7464085988633791 0.3252307397060303 0  0.02064469536321903 0.827826152484757 0  -0.6299332241648122 0.5158342404302462 0  -0.6649689944704764 -0.4839644683910337 0  0.70800971084343 -0.4326557279765403 0  -0.3223706017906134 -0.01040698776897026 0  -0.5054246806996193 -0.1745782100334494 0  -0.4005901524784139 -0.416410058674076 0  -0.1042571859310078 0.5683311063186439 0  -0.4005901524784139 0.4164100586740762 0  0.1877980753282089 0.5464445901741976 0  0.1206822009066526 -0.3580378865832485 0  0.4460042554300219 0.1536417414647964 0  0.1738116160219865 0.7624188124093614 0  -0.8321051542296078 6.938893903907228e-17 0  -0.3796152393980441 0.7404669187156475 0  0.4930547478800816 0.6553511379173387 0  0.5542774023972679 -0.610736590905896 0  0.06765100167578174 -0.8273503122395667 0  -0.1263627236672069 -0.8227899655417861 0  0.1732568394682733 -0.03313223201635654 0  0.3244981183472287 -0.0945514879573747 0  0.3964818767539355 0.5278166619520006 0  0.8225174138930775 -0.2094386686091706 0  0.3862762456383678 -0.5051310802049933 0  -0.1330531929054866 -0.5703508657222929 0  -0.177647535364107 0.2946018482597728 0  0.2899951183081392 0.2550067652537422 0  0.08441079514704673 -0.5842176964322349 0  -0.1490115292621843 0.8450863768180583 0  0.2737504708168863 -0.814776874033456 0  -0.142353501387633 0.04833782824577596 0  0.06123953108016653 -0.1447132819643286 0  0.5259110046002531 -0.2630012123273205 0  -0.2028836910358441 -0.2907872567933579 0  0.6961680963734469 0.4954410198387236 0  -0.5896348602892731 0.1963655996997491 0  -0.4687501505461277 -0.7257671910482482 0  -0.3280940097505531 0.2841706514959641 0  0.4262046142439533 0.009495858005196894 0  -0.3034808298607995 -0.575360661977006 0  -0.655077525044371 5.551115123125783e-17 0  -0.2988533483177751 0.5829350221229744 0  0.2606280324088774 -0.3621577007324048 0  0.06109885742534778 0.1213198421233271 0  0.5883360859796991 0.3533614497113013 0  0.3043653793591053 0.8070919162104671 0  -0.5977628423620102 -0.6160630342157603 0  -0.5768580796341715 0.6421662051486873 0  -0.8346144062426474 -0.2203666761707024 0  -0.8558623315149202 0.173016302948436 0  0.8612845745432718 0.03178923580507788 0  0.6132723301615656 -0.08714674393221392 0  0.1628110939985944 0.3655319136460566 0  -0.09567032507741235 0.4355151996776715 0  0.05746843722344426 0.5194633991763268 0  -0.436019945709395 -0.2881300360956253 0  -0.07596061144871569 0.6983647226519493 0  -0.6275255320060281 -0.2275110374504959 0  -0.5226873339000571 -0.469341295132707 0  -0.1125799974105092 -0.3851292258287221 0  0.619011024823678 0.6063877701182406 0  -0.2763102364367199 0.8192202812544818 0  0.7745348125424459 -0.3258032396315157 0  -0.518060795045081 0.4596654131466001 0  0.6694847456509949 0.1140659043624926 0  -0.4164279919677704 -0.08967120904698817 0  -0.3237023997545292 -0.8247802633914654 0  0.8468194484731224 -0.0896151494438422 0  0.4258293249936974 0.7649442768810276 0  -0.4452381011188446 0.304057250497095 0  -0.1429733645462529 -0.705840003340848 0  0.6708719183416081 -0.5559925608496961 0  -0.3198578181913611 -0.3250798040022018 0  0.4976994035910101 -0.722786655132186 0  0.3915320294649418 -0.7878115305337891 0  0.3013332399688708 -0.585568912488973 0  -0.05021176719619284 -0.1065627974183157 0  -0.5778499190094819 -0.08523074965409963 0  -0.4069729011762343 0.07227633527667994 0  0.1017761104609 -0.4710042480313572 0  0.8313172614604811 0.2723171946851911 0  -0.06237900155959543 0.3161471027625475 0  0.7228946573831219 -0.1512956814359499 0  0.6036725534446189 -0.345871914207299 0  0.1705451400955359 0.08284736515785829 0  -0.3661633096233823 -0.6724877309579722 0  -0.7432283975853058 0.454177419441099 0  -0.7886115584549602 -0.4294549654143447 0  0.210520553651675 0.8682430176792441 0  0.1024345016269031 -0.2481784681422972 0  -0.8322817485593992 -0.1101956133222516 0  -0.477755773363484 0.6903516518401452 0  0.03638745749539424 0.2677067415209754 0  0.005824306220235123 -0.3559598780800155 0  -0.02393057554055716 -0.5773091896046807 0  -0.656853418329663 0.3875346040967115 0  0.2023789243848113 0.6558288354998336 0  -0.5778499190094819 0.08335021638867035 0  0.8934476994401067 0.1341710538308732 0  0.3910989747205646 -0.1850985530637385 0  0.2900570811000597 0.5137964995259913 0  0.452764781948902 0.4354733387228008 0  0.4254647729341454 -0.4009256457985336 0  0.07502847893507417 -0.7203260015172291 0  0.2868290874409293 -0.7087819889995405 0  0.1884682971157424 -0.5957245682636509 0  0.7140991219034133 0.2413235030500445 0  0.1696702818122023 -0.8041727389113376 0  -0.03976182458011464 0.09606993450337703 0  -0.144895576760654 0.1537255187907586 0  -0.0679575666902707 -0.9068307063252722 0  -0.6878282916538929 0.2367020581784782 0  0.2741614604364078 -0.001581553459900201 0  0.2887101103557479 -0.2647410788026469 0  -0.6958459635813904 -0.5838840913973433 0  0.4522629467729725 -0.586590978490136 0  -0.06798126544149206 0.9071469441830431 0  -0.2251516232954611 -0.8119800599910756 0  0.7531456777622132 0.06094452615252965 0  0.5941459501568455 -0.1872721025851182 0  -0.216657295148843 -0.6276165006205845 0  -0.228089505904504 -0.1874590519798677 0  -0.26831543489379 -0.09525095123827111 0  -0.1134800437664088 -0.1811377597871832 0  -0.3760665750606548 0.5157676543792213 0  -0.1992448771787426 0.6064188495583912 0  -0.5683961947462335 -0.7122395910944973 0  -0.3431915831704673 0.186560664
[...]
<PointData  Scalars="f_448"> 
<DataArray  type="Float64"  Name="f_448"  format="ascii">1.1000000000000001e+00  1.1000000000000001e+00  1.0999999999999999e+00  1.1000000000000001e+00  1.1000000000000001e+00  1.1000000000000001e+00  1.1000000000000001e+00  1.0999999999999999e+00  1.1000000000000001e+00  1.1000000000000003e+00  1.0999999999999999e+00  1.1000000000000001e+00  1.1000000000000001e+00  1.1000000000000001e+00  1.1000000000000003e+00  1.1000000000000001e+00  1.1000000000000001e+00  1.1000000000000001e+00  1.1000000000000001e+00  1.0999999999999999e+00  1.1000000000000001e+00  1.1000000000000001e+00  1.1000000000000001e+00  1.1000000000000001e+00  1.1000000000000001e+00  1.1000000000000001e+00  1.1000000000000001e+00  1.1000000000000001e+00  1.1000000000000001e+00  1.1000000000000001e+00  1.1000000000000001e+00  1.0999999999999999e+00  1.1000000000000001e+00  1.1000000000000001e+00  1.1000000000000001e+00  1.0999999999999999e+00  1.1000000000000001e+00  1.1000000000000001e+00  1.1000000000000001e+00  1.0999999999999999e+00  1.1000000000000001e+00  1.1000000000000001e+00  1.1000000000000001e+00  1.1000000000000001e+00  1.0999999999999999e+00  1.0999999999999999e+00  1.0999999999999999e+00  1.1000000000000001e+00  1.0999999999999999e+00  1.1000000000000001e+00  1.1000000000000001e+00  1.1000000000000001e+00  1.1000000000000001e+00  1.0999999999999999e+00  1.0999999999999999e+00  1.1000000000000001e+00  1.1000000000000001e+00  1.1000000000000001e+00  1.1000000000000001e+00  1.0999999999999999e+00  1.0999999999999999e+00  1.0999999999999999e+00  1.1000000000000001e+00  8.5611966278063101e-01  1.0006121659890721e+00  1.0005650625887581e+00  1.0005990940707614e+00  1.0005814256115511e+00  1.0005630477499314e+00  1.0216126007862953e+00  1.0635897989873226e+00  1.0691701022655817e+00  1.0691591545750141e+00  1.0692095223612565e+00  1.0815733376399621e+00  1.0815728487464638e+00  9.1527608786620995e-01  9.1111640786106607e-01  1.0968829641596705e+00  1.0986086371653954e+00  9.5047530312261030e-01  9.1177896445581508e-01  9.5045283946889969e-01  1.0989030974473093e+00  1.0988432826472943e+00  1.0988731480589387e+00  1.0988869277104105e+00  1.0988443406494981e+00  1.0989186533110884e+00  9.0051200779112628e-01  1.1074038034718785e+00  1.0923758221398072e+00  1.1060481847477419e+00  9.8607399537048346e-01  1.0941313213723942e+00  9.9384292549383824e-01  8.8429522404222083e-01  8.8150473475732405e-01  9.0394786710441410e-01  1.1163633605714360e+00  1.1142108550632503e+00  1.0333202467043401e+00  1.0287769143511918e+00  9.9058337330755108e-01  1.1160713245956499e+00  1.1161000937147003e+00  1.1180219612465028e+00  1.1161220227793005e+00  1.1172629158736476e+00  1.1182006839167533e+00  9.2259528521803214e-01  1.0165161622957255e+00  1.0363368956699013e+00  1.0363485679948987e+00  1.0363518514896612e+00  1.0363436122866836e+00  9.4504002772742945e-01  9.8712925924271677e-01  1.1100620714701706e+00  1.1184158763671916e+00  1.1184219218830884e+00  1.1169143621677149e+00  1.1175514978696968e+00  1.1182012467434259e+00  1.1184559449511962e+00  8.7692156561934154e-01  9.2862111395612124e-01  1.0715896369582321e+00  1.1199802469626163e+00  1.0617167362913660e+00  1.0398677945536066e+00  9.3107060470338798e-01  9.4860036910478307e-01  1.0419428183969224e+00  1.1205197291272420e+00  1.1206012761933872e+00  8.7133001964642443e-01  8.7267911735796611e-01  1.0409379940660692e+00  9.3532765793596695e-01  1.1203849528714185e+00  1.0556389921277305e+00  1.1207880090482945e+00  9.6977801680207520e-01  9.6628969528749464e-01  1.0677159276136803e+00  1.0695744402433440e+00  1.0695669671738535e+00  9.7531552208650474e-01  8.6855708018628408e-01  1.0815529435001612e+00  1.1207262690929192e+00  1.1205756258521824e+00  1.1207674672987473e+00  1.1207636591298191e+00  1.1209707141913559e+00  1.1206706266689519e+00  1.0547558495003684e+00  9.5466961714412080e-01  9.7519294832045800e-01  1.0108828442163211e+00  1.0108727237800084e+00  1.0873073099138981e+00  1.0744801554889964e+00  1.0873359245700525e+00  9.5516011959668967e-01  1.1208501465402214e+00  1.1207772903368185e+00  1.1192993918020275e+00  1.0838364934308669e+00  1.0788839143658440e+00  9.6615270478571225e-01  1.1208513137102425e+00  1.1201575857404755e+00  1.1209622703940973e+00  1.0185706535078201e+00  1.0932597220263935e+00  1.1209828636016730e+00  9.7983619852758264e-01  1.1209743685870082e+00  1.1209836309314662e+00  1.0709421734066356e+00  8.6551318777198816e-01  1.0391759341665299e+00  9.6048183333813808e-01  9.9180017909400842e-01  1.1209298122482214e+00  9.2254510340410956e-01  1.0989168333263413e+00  1.0849784249676913e+00  8.8012241412757020e-01  1.1062946237234612e+00  1.1209607851930499e+00  1.1203948616804766e+00  1.1206064710289441e+00  9.0318610255740794e-01  1.1192260406493419e+00  1.1192333262314147e+00  9.0370661784005402e-01  9.3590913791948149e-01  1.0363329847257545e+00  1.1054984107720198e+00  1.0815733869414330e+00  1.0390637723747882e+00  1.1199464127622045e+00  9.6918042341544242e-01  1.0418533553359497e+00  1.0584923298693349e+00  1.0394120186764133e+00  1.0945225067224900e+00  1.1060339087498834e+00  1.0570536496098697e+00  1.1031911264574679e+00  1.1171531246516713e+00  8.6350604272918097e-01  8.8582146842454379e-01  1.1194273733864493e+00  1.0955635604449288e+00  9.0509547047804950e-01  9.5098419351654029e-01  1.1195731380755449e+00  1.0995556529459871e+00  1.1194441137582476e+00  1.1194388293550703e+00  1.1036648928176538e+00  1.0562845837382955e+00  1.0731003820060727e+00  9.1245875165879065e-01  9.0872086503528493e-01  8.8642326922346115e-01  1.0627428947160502e+00  1.0627288358260187e+00  1.1193349972792086e+00  9.5051920522399047e-01  1.1202354728329715e+00  1.1166135060295264e+00  1.1201293126694856e+00  1.1206024712407323e+00  1.1200844480072758e+00  9.0458434243583263e-01  1.1188925612767073e+00  8.8677548900984304e-01  1.0203870147667558e+00  1.1197667429525928e+00  9.9546942159658636e-01  1.1202458578885028e+00  8.6232290296701342e-01  1.1080987902067088e+00  1.0949381112992946e+00  1.1086992549972223e+00  1.1199260906949513e+00  1.1190475097617429e+00  9.7863516037405629e-01  9.9621343831100284e-01  1.0635340046003403e+00  9.8306552763616972e-01  9.9586731607206536e-01  1.1093218603668920e+00  1.1192790078405876e+00  1.1198207273272500e+00  1.1181406785947141e+00  1.0434152091343947e+00  1.0679708452402259e+00  1.0161263845644206e+00  9.9876611208274613e-01  1.0367976467049989e+00  1.0475761655989262e+00  1.1103413027623972e+00  1.1000644772615811e+00  1.1186180311766918e+00  8.6436201436475968e-01  1.1183093695391630e+00  1.0386881110794770e+00  1.1192843078467754e+00  1.1143466528296921e+00  9.2329067778379326e-01  1.0972010556250509e+00  1.1138637900077217e+00  1.1058496311626040e+00  1.0981570285970956e+00  1.1201309156938053e+00  8.6148409085158395e-01  9.4526181479981664e-01  1.1175962125141472e+00  1.1196701780617158e+00  1.1177983326643564e+00  1.1006821128124922e+00  1.0972333347787935e+00  1.1006882579037400e+00  1.0972368703078577e+00  1.1157810207522880e+00  8.8267871010080512e-01  1.1037566032043715e+00  1.1195469591570568e+00  1.1179331611919225e+00  1.0462546795590524e+00  9.7875319938556693e-01  1.0244345819050700e+00  1.0558488453073511e+00  9.8484788718990079e-01  1.0563874963487550e+00  1.0108347008812162e+00  1.0558339387080597e+00  1.1179783777882797e+00  1.1180583388564340e+00  9.3474867820368213e-01  9.3566404710279738e-01  9.8176450891875000e-01  1.1175795434596614e+00  1.1177222878715185e+00  9.0333165231201618e-01  8.9303826389756802e-01  1.0829555858089817e+00  1.1068083010144256e+00  1.1171595702487496e+00  1.0528447044230431e+00  1.0013524583247575e+00  1.0505548203724144e+00  1.1173173573930069e+00  1.1189692858932703e+00  9.3346405304599500e-01  1.1186971902088059e+00  1.1169034462494698e+00  1.1193719442988401e+00  1.0262338942081730e+00  9.9723356659973217e-01  9.5991128357597921e-01  1.0042180953444970e+00  1.0894020747093265e+00  1.0969738929472872e+00  1.1163906307738389e+00  1.0687196615873666e+00  1.1066845731298049e+00  1.0881684670754310e+00  1.1177726556181631e+00  1.1077378276399128e+00  1.1164660543119298e+00  1.0374414370753269e+00  1.1188558928599079e+00  1.1077002508050351e+00  1.0277437351065331e+00  1.1163049307476056e+00  9.6297244429217543e-01  1.0368416298916816e+00  1.1190968303314524e+00  9.4776959093490498e-01  9.6329986816724122e-01  1.0031371192058662e+00  1.0872655275467535e+00  9.3071921901872989e-01  1.1158384280309346e+00  1.1051134807320571e+00  9.0536899176039198e-01  9.6654405511922836e-01  9.1154675642093896e-01  1.1159382651738399e+00  1.1188920074157285e+00  1.0736586913026704e+00  1.1190767497552121e+00  1.1094948488545096e+00  1.1172938086469115e+00  1.0726490824357737e+00  8.8833095513500249e-01  1.0615460834878971e+00  9.4520017204733975e-01  9.7169678720010566e-01  9.1050843694836492e-01  1.0700487284355307e+00  1.1001388244942036e+00  1.0061474093287361e+00  1.0207321225956578e+00  1.1179764780228774e+00  1.0363786641454700e+00  1.0695528092844624e+00  1.0690063279789830e+00  9.3637287985992179e-01  1.0232570250093023e+00  8.8432433578093284e-01  9.2384933430351401e-01  1.0870289163245739e+00  9.8408020575142185e-01  1.0042365023848561e+00  1.1169651618407561e+00  1.0606858353308064e+00  1.0702443362514755e+00  1.0141954778640163e+00  1.0884784089063213e+00  1.0911561916921997e+00  1.1169735349240923e+00  1.0824427901805942e+00  9.5950577338674492e-01  1.1169724500061815e+00  1.1167849906111293e+00  1.1167092274653145e+00  8.8547851686863810e-01  9.3969641675341919e-01  1.1188574630017387e+00  1.0732102078371579e+00  1.0226663129185503e+00  1.0790709764524795e+00  1.0802915619387536e+00  1.1117088009451954e+00  1.1182956881844199e+00  1.1125117646242033e+00  9.5289212879411911e-01  1.1143769336311675e+00  1.1158055955839417e+00  1.1166127093095186e+00  1.1176810829241777e+00  1.1199852098822838e+00  8.5977219052102838e-01  9.3888129006884979e-01  9.8312804496329254e-01  9.4865228210088504e-01  1.0685395458100611e+00  1.0196329649577427e+00  1.0786279412882105e+00  1.0147198367038628e+00  1.1122527385271725e+00  9.2072158458357789e-01  1.1014866391370797e+00  9.2749023427006505e-01  1.1166028123152039e+00  1.1163166061190930e+00  1.1138326909356284e+00  1.1160526058085158e+00  8.7882179547315742e-01  1.1075743561717355e+00  1.1128867436813621e+00  1.1173800104227769e+00  1.1161684526005082e+00  1.1028494408217200e+00  1.1146276706055134e+00  1.1163194840352968e+00  1.0478154409198610e+00  1.0491106651093425e+00  1.1097968091417956e+00  1.1179989020268288e+00  1.0278243879752078e+00  1.1190280682637086e+00  1.1139972099595030e+00  1.1138563338010408e+00  8.7478469620172061e-01  8.5925482303435829e-01  9.2693599798183046e-01  1.1190857334595599e+00  1.1041151789370143e+00  1.0975153876827006e+00  1.1165446683561613e+00  1.1197974791024419e+00  1.1162888880584507e+00  1.1206444489425038e+00  1.1161153711734577e+00  1.1172964921170738e+00  1.0395269107103819e+00  1.0983477476551415e+00  1.0688298805277396e+00  1.1209779515932672e+00  9.6945935898514601e-01  1.1083304095629765e+00  1.1067911082327972e+00  9.9648706535276288e-01  1.0975153876827008e+00  1.0747987895257134e+00  1.0855335245141740e+00  8.8591200579916773e-01  1.1173632591522045e+00  1.0286289126340187e+00  1.0905226054927954e+00  1.0404317137646737e+00  9.5694951951952678e-01  1.0049990879975037e+00  9.7831181080904439e-01  1.0265502396113151e+00  1.0076429897003467e+00  9.7886271598368313e-01  1.0097866461140752e+00  8.8727405414559291e-01  1.0975153876827008e+00  1.1144186519684369e+00  1.0384365333909416e+00  1.1155294194118013e+00  1.1147285798276276e+00  1.0975153876827008e+00  1.1161897052253629e+00  9.4864979970023322e-01  9.6995517610487059e-01  9.4081652064280286e-01  9.6100799752740784e-01  8.6250478983918444e-01  1.1197196892366357e+00  1.0975153876827008e+00  1.1167152950791228e+00  1.1201156949561939e+00  1.0080237352652726e+00  1.1153737225840614e+00  1.0107742266471975e+00  1.0922411066144746e+00  1.1204297112441306e+00  9.5738346988098999e-01  1.1210041752405446e+00  1.0054400832201491e+00  1.0806449992849974e+00  1.1143089111831024e+00  9.0735158586779774e-01  1.1105892834393947e+00  1.0319703470205330e+00  9.2472844982553093e-01  1.0074885398543754e+00  1.0267931063502871e+00  1.1196716773754218e+00  1.0968919739843073e+00  1.0724293043971762e+00  9.7964186618818350e-01  1.0433178123869145e+00  1.1181165643497375e+00  1.1206360852775183e+00  1.0554484028807176e+00  1.0050559266143559e+00  1.0842310447353110e+00  9.0289371939049223e-01  1.1193855311801366e+00  1.0771207522715591e+00  1.1204664788007230e+00  1.0975153876827006e+00  1.0558796575395992e+00  1.0975153876827006e+00  1.1096006602438335e+00  1.0947094318030233e+00  9.9273655760020585e-01  1.0975153876827006e+00  9.7764220908010602e-01  1.1153614332238093e+00  1.1173198826044746e+00  1.1159309723295043e+00  9.4375769133753162e-01  1.1057579458732383e+00  1.0794174945238142e+00  1.0101931532785982e+00  8.9446981999755970e-01  1.0919009248651150e+00  1.1208868704709538e+00  1.1207890152914151e+00  1.1163483498915456e+00  1.1031012014991299e+00  1.0651231543126856e+00  9.7566403326053863e-01  9.2519551707039149e-01  1.1157922499197566e+00  9.0367657855833061e-01  1.1207668179565811e+00  1.0975153876827006e+00  1.0909701360259616e+00  1.1201909776007035e+00  1.1151796123190814e+00  1.0828725808305573e+00  1.0622112196578688e+00  9.2150995853014150e-01  1.1093594401408189e+00  1.1082588197638803e+00  1.1137885159668175e+00  8.7460436958532983e-01  8.7179076471286643e-01  1.1134171316758465e+00  1.1154173796308484e+00  1.0790503201773862e+00  1.1209998607912948e+00  1.0449966662076249e+00  1.0081589734974248e+00  1.1209487648409178e+00  9.3675092307615393e-01  9.8045958539905964e-01  9.7766441340058163e-01  1.0874383392358493e+00  1.1091780080730487e+00  1.0975153876827006e+00  1.0462713499400036e+00  8.5879593892093053e-01  8.7002839716951097e-01  1.0766572856005128e+00  1.0282944125009867e+00  1.1131109399351684e+00  1.0601141955772857e+00  9.0149634947962221e-01  1.0916343972246099e+00  1.1032434887955074e+00  1.0470299725304051e+00  1.1205873246648215e+00  1.0975153876827008e+00  1.1152570291141837e+00  1.1209100250314117e+00  8.9191122903105313e-01  1.0778013842314096e+00  1.1209626492084861e+00  9.0475683006939245e-01  8.7175429264359916e-01  8.9717620934656250e-01  1.0216252425067436e+00  1.0975153876827008e+00  1.0375101670704718e+00  9.7474329804812732e-01  1.1183962686062330e+00  1.1209538996839425e+00  9.9116971165822165e-01  9.8473455479582417e-01  1.1078499374090434e+00  1.1172955950492833e+00  9.0953542121910569e-01  1.0905338727621248e+00  1.1179536490865021e+00  1.0291208538913075e+00  1.0167609183074851e+00  1.0273147774774365e+00  1.0568438946654908e+00  9.6899189433267385e-01  9.6077324581896772e-01  1.1066208143836476e+00  9.8335417868410202e-01  1.0174993373352308e+00  9.6655130241656073e-01  9.8027752718842009e-01  9.2393138332281743e-01  1.1157123276820828e+00  1.1000579134118285e+00  9.9777176927832278e-01  1.0980400407833240e+00  9.8189187853662763e-01  1.0883274325567460e+00  1.0616595830477669e+00  1.0751857951930663e+00  1.1169115068115039e+00  1.0179921084765031e+00  1.1189085592531198e+00  8.6773839726463076e-01  1.1132577480977512e+00  1.0847932844879420e+00  1.1152263623140006e+00  1.1135155807076380e+00  1.1101234437774665e+00  1.1060543031257639e+00  1.0325980744123002e+00  1.0975153876827006e+00  1.1148658651215222e+00  1.0682846369386845e+00  9.8468853768590758e-01  9.4844618026381633e-01  1.0975153876827006e+00  1.0123056697068835e+00  1.1092308530212880e+00  1.1139570335449229e+00  1.1091760745270138e+00  1.1139505556965419e+00  1.1152771186306296e+00  1.1143836243091696e+00  1.1208360726097297e+00  1.1209581674533886e+00  1.1136832693758953e+00  1.1151496965333845e+00  1.0591486450376040e+00  1.1117096861886722e+00  1.1083944354948267e+00  1.0646853223448507e+00  9.2341291041156570e-01  9.1263070213500463e-01  1.0591066414977706e+00  9.2512032022700652e-01  1.1156368711770743e+00  8.7501344593823727e-01  8.7028641607945434e-01  9.5359424820799010e-01  8.9366311892212535e-01  1.0923872632411800e+00  1.0611762682353512e+00  1.1202419666793351e+00  1.1209014717260819e+00  8.8895127117857176e-01  1.1206642486736658e+00  1.1202807852023597e+00  1.1208623715381147e+00  1.0975153876827006e+00  1.1140297871244416e+00  1.1209118859037659e+00  1.1199218126416661e+00  1.0348485408613577e+00  1.0553434488221614e+00  1.0901464061992423e+00  1.1165855149704695e+00  9.5481520589707003e-01  1.0601382162461279e+00  1.0966008193206151e+00  8.8497984224394988e-01  1.0799871036854261e+00  1.0672416630577597e+00  1.0441230459016853e+00  1.1145705049891970e+00  1.1204105252458263e+00  1.0975153876827008e+00  1.1138509271771444e+00  9.0201989427644791e-01  1.1084650265503349e+00  1.1138142687598500e+00  1.1209482355205556e+00  9.2999275248666180e-01  1.0449594837429514e+00  1.0561820752229376e+00  1.0264787392956327e+00  1.1201714429827796e+00  1.1209335686339510e+00  1.0918157377168130e+00  1.0996991338859550e+00  1.0897501729338106e+00  1.0224046144518739e+00  1.0993701285712014e+00  1.1209583697841810e+00  1.1136489851820679e+00  1.1205076757008978e+00  8.6839214264677511e-01  1.1203936642565049e+00  9.2197084391790751e-01  8.7498786689370966e-01  1.1148230881616490e+00  1.0970884947692543e+00  1.1094586905533890e+00  9.8611012632469874e-01  9.1205667378134114e-01  8.7785214321660232e-01  1.0561448291528355e+00  1.0170674508069928e+00  8.8881052905895241e-01  1.0796097916470315e+00  9.7144573905799436e-01  8.9647702015695696e-01  1.1143963783435780e+00  9.1108830722127665e-01  1.0824259645499339e+00  1.0766039809771160e+00  1.0438934779404938e+00  1.0382192463075417e+00  1.0929531015121607e+00  1.1080240911564292e+00  1.1189794978788612e+00  1.1125600314586230e+00  1.1157855524367228e+00  1.1209827772280856e+00  1.1141018351052285e+00  1.0975153876827006e+00  1.0381434510668537e+00  9.9974235524255162e-01  1.0975153876827006e+00  9.7127433756188908e-01  1.0056159415518535e+00  9.5976552248271763e-01  9.9249042717414948e-01  1.0743121798730724e+00  8.6506575016872100e-01  1.1138972331034163e+00  1.1209756739084535e+00  1.0214764706231225e+00  1.1208498481366023e+00  1.1209106562602109e+00  1.0839170968550398e+00  1.1126779002536165e+00  1.1209481522124218e+00  1.1145124500214638e+00  1.1130917222718097e+00  9.4428605804206067e-01  8.5798878667262779e-01  1.1186821807097225e+00  9.3745638483889138e-01  1.1203066512810167e+00  1.1147577403532074e+00  1.0975153876827006e+00  1.0975153876827006e+00  1.0512508813969368e+00  1.0601729398473212e+00  1.0517369511319865e+00  9.1565941920103355e-01  9.3372015733562308e-01  1.1186026178672832e+00  1.0401583473274154e+00  1.0975153876827006e+00  1.1141848379932924e+00  1.0975153876827008e+00  1.1208686341525111e+00  9.3206193253446379e-01  9.5265243364466534e-01  1.0620956050573644e+00  9.9071635016745940e-01  1.0753236266998434e+00  1.0506257744329266e+00  1.0440571671524514e+00  9.4858427738208184e-01  1.1136210518582621e+00  9.5422703916586782e-01  1.1128245736825426e+00  1.0235778718401269e+00  1.1209369664240951e+00  1.1201841931570828e+00  9.7183649880422296e-01  1.0728585536938526e+00  1.0550363302510561e+00  1.0605735944523427e+00  1.0429528795278975e+00  1.0975153876827008e+00  9.5966484235789906e-01  1.1129376156613997e+00  1.1208223591602384e+00  1.1098215735487635e+00  1.0975153876827006e+00  1.0975153876827011e+00  1.1121484740072656e+00  1.1208414026208737e+00  1.1139708980084218e+00  1.0975153876827006e+00  1.1132477736594877e+00  1.1135265968171433e+00  8.8762239707262358e-01  1.0975153876827006e+00  9.2258933879384375e-01  1.1208421866915192e+00  1.1207337916549731e+00  1.0012436653659964e+00  1.0220205598306689e+00  1.0035769115398785e+00  1.0872257087950041e+00  1.1181018700211560e+00  1.0956803088027431e+00  1.0867530275747013e+00  9.8350198954875112e-01  1.056997314522361