<?xml version="1.0"?>
<VTKFile type="UnstructuredGrid"  version="0.1"  >
<UnstructuredGrid>
<Piece  NumberOfPoints="8165" NumberOfCells="16057">
<Points>
<DataArray  type="Float64"  NumberOfComponents="3"  format="ascii">-0.9987569212189223 0.04984588566069748 0  -0.9987569212189223 -0.04984588566069723 0  -0.9888308262251285 -0.1490422661761745 0  -0.969077286229078 -0.2467573976902936 0  -0.9396926207859084 -0.3420201433256687 0  -0.9009688679024191 -0.433883739117558 0  -0.8532908816321557 -0.5214352033794979 0  -0.7971325072229226 -0.6038044103254772 0  -0.7330518718298266 -0.6801727377709191 0  -0.6616858375968597 -0.749781202967734 0  -0.5837436722347905 -0.8119380057158559 0  -0.4999999999999996 -0.8660254037844388 0  -0.4112871031306116 -0.9115058523116731 0  -0.318486650251685 -0.9479273461671316 0  -0.2225209339563146 -0.9749279121818236 0  -0.1243437046474858 -0.992239206600172 0  -0.02493069173807316 -0.9996891820008162 0  0.07473009358642436 -0.9972037971811801 0  0.17364817766693 -0.9848077530122081 0  0.2708404681430051 -0.962624246950012 0  0.3653410243663945 -0.9308737486442045 0  0.4562106573531629 -0.8898718088114687 0  0.5425462638657597 -0.8400259231507713 0  0.6234898018587334 -0.7818314824680299 0  0.698236818086073 -0.7158668492597183 0  0.7660444431189778 -0.6427876096865396 0  0.8262387743159945 -0.5633200580636227 0  0.8782215733702283 -0.4782539786213186 0  0.9214762118704076 -0.3884347962746947 0  0.9555728057861406 -0.2947551744109047 0  0.9801724878485438 -0.1981461431993977 0  0.9950307753654013 -0.09956784659581729 0  1 0 0  0.9950307753654014 0.09956784659581666 0  0.9801724878485438 0.1981461431993976 0  0.9555728057861407 0.2947551744109042 0  0.9214762118704076 0.3884347962746947 0  0.8782215733702285 0.4782539786213182 0  0.8262387743159949 0.5633200580636221 0  0.766044443118978 0.6427876096865393 0  0.6982368180860729 0.7158668492597184 0  0.6234898018587336 0.7818314824680298 0  0.5425462638657594 0.8400259231507714 0  0.4562106573531631 0.8898718088114685 0  0.365341024366395 0.9308737486442042 0  0.2708404681430052 0.962624246950012 0  0.1736481776669304 0.984807753012208 0  0.07473009358642439 0.9972037971811801 0  -0.02493069173807291 0.9996891820008162 0  -0.1243437046474852 0.9922392066001721 0  -0.2225209339563143 0.9749279121818236 0  -0.3184866502516843 0.9479273461671318 0  -0.4112871031306114 0.9115058523116732 0  -0.5000000000000002 0.8660254037844385 0  -0.5837436722347896 0.8119380057158566 0  -0.6616858375968592 0.7497812029677344 0  -0.7330518718298263 0.6801727377709194 0  -0.7971325072229225 0.6038044103254774 0  -0.8532908816321556 0.5214352033794981 0  -0.900968867902419 0.4338837391175582 0  -0.9396926207859083 0.3420201433256689 0  -0.9690772862290778 0.2467573976902938 0  -0.9888308262251285 0.1490422661761747 0  0 -3.33066907387547e-16 0  0.2922351073784631 0.4064742824134499 0  -0.2283892344877995 0.445489683178082 0  -0.5006223129745928 1.249000902703301e-16 0  0.4851417124831425 -0.1235322591753062 0  -0.2283892344877995 -0.4454896831780823 0  0.2244381293544702 -0.4974059892257727 0  0.6017400542999141 0.2190154685308969 0  -0.5581446696297816 -0.3410751076665679 0  0.04888157636984874 0.6522793058172992 0  -0.5581446696297816 0.341075107666568 0  0.5318003682503499 -0.4338991867093802 0  -0.02655531792237059 -0.6858388666358241 0  0.2846822903539273 0.1036158799115578 0  0.2057127456600814 -0.2065170392348358 0  0.5499950705631735 0.4828159805817372 0  0.7365712010015821 -0.03676074036240858 0  -0.3332123644358574 -0.2036218372401125 0  -0.2503111564872963 0.1529619636172051 0  0.02918230080088918 0.3894107416776539 0  0.3119038197247055 0.6693125881472082 0  -0.4533085568472715 0.5829019520470146 0  -0.2086642468434529 0.7083237716612585 0  -0.4533085568472716 -0.5829019520470144 0  -0.7255122091309201 -0.1374604227155882 0  -0.7255122091309201 0.1374604227155883 0  -0.05009008488438581 -0.2556093177500643 0  0.3851790873862939 -0.6671497493660733 0  0.6709552008695683 -0.254288853195751 0  -0.2603565207201746 -0.7190461267637986 0  -0.01274908188504958 -0.4693251432427898 0  0.180383544466418 -0.7001037260965679 0  0.3847163576179377 -0.2973202411100294 0  -0.04995432007195971 0.1995423851608914 0  -0.1678190342621316 -0.0998261742388182 0  0.1403205714878223 0.2316624653136229 0  0.7349932089154046 0.3539540744095583 0  0.7879319621210741 0.1537397135554779 0  0.5698193606007648 0.03876274873020472 0  0.4558478162384035 0.3273736178084163 0  -0.4419539887971066 0.1852825496193718 0  -0.7464085988633791 -0.3252307397060302 0  -0.7464085988633791 0.3252307397060303 0  0.02064469536321903 0.827826152484757 0  -0.6299332241648122 0.5158342404302462 0  -0.6649689944704764 -0.4839644683910337 0  0.70800971084343 -0.4326557279765403 0  -0.3223706017906134 -0.01040698776897026 0  -0.5054246806996193 -0.1745782100334494 0  -0.4005901524784139 -0.416410058674076 0  -0.1042571859310078 0.5683311063186439 0  -0.4005901524784139 0.4164100586740762 0  0.1877980753282089 0.5464445901741976 0  0.1206822009066526 -0.3580378865832485 0  0.4460042554300219 0.1536417414647964 0  0.1738116160219865 0.7624188124093614 0  -0.8321051542296078 6.938893903907228e-17 0  -0.3796152393980441 0.7404669187156475 0  0.4930547478800816 0.6553511379173387 0  0.5542774023972679 -0.610736590905896 0  0.06765100167578174 -0.8273503122395667 0  -0.1263627236672069 -0.8227899655417861 0  0.1732568394682733 -0.03313223201635654 0  0.3244981183472287 -0.0945514879573747 0  0.3964818767539355 0.5278166619520006 0  0.8225174138930775 -0.2094386686091706 0  0.3862762456383678 -0.5051310802049933 0  -0.1330531929054866 -0.5703508657222929 0  -0.177647535364107 0.2946018482597728 0  0.2899951183081392 0.2550067652537422 0  0.08441079514704673 -0.5842176964322349 0  -0.1490115292621843 0.8450863768180583 0  0.2737504708168863 -0.814776874033456 0  -0.142353501387633 0.04833782824577596 0  0.06123953108016653 -0.1447132819643286 0  0.5259110046002531 -0.2630012123273205 0  -0.2028836910358441 -0.2907872567933579 0  0.6961680963734469 0.4954410198387236 0  -0.5896348602892731 0.1963655996997491 0  -0.4687501505461277 -0.7257671910482482 0  -0.3280940097505531 0.2841706514959641 0  0.4262046142439533 0.009495858005196894 0  -0.3034808298607995 -0.575360661977006 0  -0.655077525044371 5.551115123125783e-17 0  -0.2988533483177751 0.5829350221229744 0  0.2606280324088774 -0.3621577007324048 0  0.06109885742534778 0.1213198421233271 0  0.5883360859796991 0.3533614497113013 0  0.3043653793591053 0.8070919162104671 0  -0.5977628423620102 -0.6160630342157603 0  -0.5768580796341715 0.6421662051486873 0  -0.8346144062426474 -0.2203666761707024 0  -0.8558623315149202 0.173016302948436 0  0.8612845745432718 0.03178923580507788 0  0.6132723301615656 -0.08714674393221392 0  0.1628110939985944 0.3655319136460566 0  -0.09567032507741235 0.4355151996776715 0  0.05746843722344426 0.5194633991763268 0  -0.436019945709395 -0.2881300360956253 0  -0.07596061144871569 0.6983647226519493 0  -0.6275255320060281 -0.2275110374504959 0  -0.5226873339000571 -0.469341295132707 0  -0.1125799974105092 -0.3851292258287221 0  0.619011024823678 0.6063877701182406 0  -0.2763102364367199 0.8192202812544818 0  0.7745348125424459 -0.3258032396315157 0  -0.518060795045081 0.4596654131466001 0  0.6694847456509949 0.1140659043624926 0  -0.4164279919677704 -0.08967120904698817 0  -0.3237023997545292 -0.8247802633914654 0  0.8468194484731224 -0.0896151494438422 0  0.4258293249936974 0.7649442768810276 0  -0.4452381011188446 0.304057250497095 0  -0.1429733645462529 -0.705840003340848 0  0.6708719183416081 -0.5559925608496961 0  -0.3198578181913611 -0.3250798040022018 0  0.4976994035910101 -0.722786655132186 0  0.3915320294649418 -0.7878115305337891 0  0.3013332399688708 -0.585568912488973 0  -0.05021176719619284 -0.1065627974183157 0  -0.5778499190094819 -0.08523074965409963 0  -0.4069729011762343 0.07227633527667994 0  0.1017761104609 -0.4710042480313572 0  0.8313172614604811 0.2723171946851911 0  -0.06237900155959543 0.3161471027625475 0  0.7228946573831219 -0.1512956814359499 0  0.6036725534446189 -0.345871914207299 0  0.1705451400955359 0.08284736515785829 0  -0.3661633096233823 -0.6724877309579722 0  -0.7432283975853058 0.454177419441099 0  -0.7886115584549602 -0.4294549654143447 0  0.210520553651675 0.8682430176792441 0  0.1024345016269031 -0.2481784681422972 0  -0.8322817485593992 -0.1101956133222516 0  -0.477755773363484 0.6903516518401452 0  0.03638745749539424 0.2677067415209754 0  0.005824306220235123 -0.3559598780800155 0  -0.02393057554055716 -0.5773091896046807 0  -0.656853418329663 0.3875346040967115 0  0.2023789243848113 0.6558288354998336 0  -0.5778499190094819 0.08335021638867035 0  0.8934476994401067 0.1341710538308732 0  0.3910989747205646 -0.1850985530637385 0  0.2900570811000597 0.5137964995259913 0  0.452764781948902 0.4354733387228008 0  0.4254647729341454 -0.4009256457985336 0  0.07502847893507417 -0.7203260015172291 0  0.2868290874409293 -0.7087819889995405 0  0.1884682971157424 -0.5957245682636509 0  0.7140991219034133 0.2413235030500445 0  0.1696702818122023 -0.8041727389113376 0  -0.03976182458011464 0.09606993450337703 0  -0.144895576760654 0.1537255187907586 0  -0.0679575666902707 -0.9068307063252722 0  -0.6878282916538929 0.2367020581784782 0  0.2741614604364078 -0.001581553459900201 0  0.2887101103557479 -0.2647410788026469 0  -0.6958459635813904 -0.5838840913973433 0  0.4522629467729725 -0.586590978490136 0  -0.06798126544149206 0.9071469441830431 0  -0.2251516232954611 -0.8119800599910756 0  0.7531456777622132 0.06094452615252965 0  0.5941459501568455 -0.1872721025851182 0  -0.216657295148843 -0.6276165006205845 0  -0.228089505904504 -0.1874590519798677 0  -0.26831543489379 -0.09525095123827111 0  -0.1134800437664088 -0.1811377597871832 0  -0.3760665750606548 0.5157676543792213 0  -0.1992448771787426 0.6064188495583912 0  -0.5683961947462335 -0.7122395910944973 0  -0.3431915831704673 0.186560664
[...]
<PointData  Scalars="f_1680"> 
<DataArray  type="Float64"  Name="f_1680"  format="ascii">1.3800000000000001e+00  1.3800000000000001e+00  1.3800000000000001e+00  1.3800000000000001e+00  1.3800000000000001e+00  1.3800000000000001e+00  1.3800000000000001e+00  1.3800000000000001e+00  1.3800000000000001e+00  1.3800000000000003e+00  1.3799999999999999e+00  1.3800000000000001e+00  1.3800000000000001e+00  1.3800000000000001e+00  1.3800000000000003e+00  1.3800000000000001e+00  1.3800000000000001e+00  1.3800000000000001e+00  1.3800000000000001e+00  1.3800000000000001e+00  1.3800000000000001e+00  1.3800000000000001e+00  1.3800000000000001e+00  1.3800000000000001e+00  1.3800000000000001e+00  1.3800000000000001e+00  1.3800000000000001e+00  1.3800000000000001e+00  1.3800000000000001e+00  1.3800000000000001e+00  1.3800000000000001e+00  1.3800000000000001e+00  1.3800000000000001e+00  1.3800000000000001e+00  1.3800000000000001e+00  1.3800000000000001e+00  1.3800000000000001e+00  1.3800000000000001e+00  1.3800000000000001e+00  1.3800000000000001e+00  1.3800000000000001e+00  1.3800000000000001e+00  1.3800000000000001e+00  1.3800000000000001e+00  1.3800000000000001e+00  1.3800000000000001e+00  1.3800000000000001e+00  1.3800000000000001e+00  1.3800000000000001e+00  1.3800000000000001e+00  1.3800000000000001e+00  1.3800000000000001e+00  1.3800000000000001e+00  1.3800000000000001e+00  1.3800000000000001e+00  1.3800000000000001e+00  1.3800000000000001e+00  1.3800000000000001e+00  1.3800000000000001e+00  1.3800000000000001e+00  1.3800000000000001e+00  1.3800000000000001e+00  1.3800000000000001e+00  2.1165482202639900e+00  1.9520758230579525e+00  1.9521755123449676e+00  1.9520986842343540e+00  1.9521376056095558e+00  1.9521785720181595e+00  1.9194734225172043e+00  1.8395517768615062e+00  1.8265912438280196e+00  1.8265982617112961e+00  1.8266739206135409e+00  1.7949253213739373e+00  1.7948937146762984e+00  2.0581995826825805e+00  2.0626238703061230e+00  1.7468673575696887e+00  1.7406848625219693e+00  2.0184187407678267e+00  2.0619282324248389e+00  2.0184697051184570e+00  1.7396417706889580e+00  1.7395469689696033e+00  1.7396355194526805e+00  1.7396030311359967e+00  1.7396253092894298e+00  1.7397071195242619e+00  2.0736478768824473e+00  1.7030057779647372e+00  1.7624851047081662e+00  1.7096118339490174e+00  1.9727737591094412e+00  1.7565486911078481e+00  1.9618940364462261e+00  2.0898955137271891e+00  2.0926246678477916e+00  2.0701161204667105e+00  1.6475624959534056e+00  1.6638572080349865e+00  1.8994507792809261e+00  1.9074013216571588e+00  1.9665383422277065e+00  1.6495499027043621e+00  1.6495558308388403e+00  1.6318408509173143e+00  1.6496175339473840e+00  1.6390848672150813e+00  1.6296075581181837e+00  2.0503043124332065e+00  1.9277442779672860e+00  1.8940934191185237e+00  1.8941031836357556e+00  1.8940444378428316e+00  1.8940745033397426e+00  2.0248718861059247e+00  1.9713097161632647e+00  1.6892241458271033e+00  1.6265636847832519e+00  1.6265062073090786e+00  1.6420003888077994e+00  1.6360672401330139e+00  1.6291108775028131e+00  1.6260792812778651e+00  2.0970565945245236e+00  2.0436610926128185e+00  1.8208779951379652e+00  1.6045223694431072e+00  1.8436378029836693e+00  1.8876758020536333e+00  2.0409121971873252e+00  2.0206629149499733e+00  1.8837416905164666e+00  1.5919291672155758e+00  1.5900106130483593e+00  2.1023973149692772e+00  2.1011134636718722e+00  1.8856459510048711e+00  2.0361113562936710e+00  1.5969254418444265e+00  1.8567460591347347e+00  1.5839560557864112e+00  1.9944874221537456e+00  1.9989241308791581e+00  1.8300551041662936e+00  1.8256833926977571e+00  1.8256759177002246e+00  1.9872840313139992e+00  2.1050149751336606e+00  1.7949816430260130e+00  1.5858558141730441e+00  1.5916028554033292e+00  1.5850191187934735e+00  1.5850140950202900e+00  1.5712346881132775e+00  1.5867797849792300e+00  1.8585962109125540e+00  2.0133589406177994e+00  1.9874189939660682e+00  1.9365433325807393e+00  1.9365764964678061e+00  1.7783416805722001e+00  1.8137027802157131e+00  1.7783598460992223e+00  2.0127582942563618e+00  1.5804244460256762e+00  1.5831414190692199e+00  1.6158478750572371e+00  1.7885586446365378e+00  1.8021846714139700e+00  1.9990954144149395e+00  1.5532075832783441e+00  1.6008061796441091e+00  1.5680426740567928e+00  1.9244341968261003e+00  1.7596293620801871e+00  1.5738260732619633e+00  1.9813013459236064e+00  1.5651282176633672e+00  1.5620536902254063e+00  1.8223187248165909e+00  2.1078697263845059e+00  1.8890052789738554e+00  2.0062448326474422e+00  1.9648202790309406e+00  1.5689431498815920e+00  2.0503435034417552e+00  1.7394549892044513e+00  1.7853810325306503e+00  2.0939671121600729e+00  1.7084844528143148e+00  1.5742675300002378e+00  1.5361506495371571e+00  1.5426633865664683e+00  2.0709009213332137e+00  1.6168310753205908e+00  1.6168014138071178e+00  2.0703665040060937e+00  2.0354496838448823e+00  1.8940699122633626e+00  1.7120315170234848e+00  1.7949197572302686e+00  1.8891259293776181e+00  1.5280612520960191e+00  1.9952351512779458e+00  1.8839781845331725e+00  1.8506738311816329e+00  1.8885253304150840e+00  1.7552280479202826e+00  1.7098028891264467e+00  1.8537608938761996e+00  1.7222641566375565e+00  1.6396975757001619e+00  2.1097402534813785e+00  2.0883967709341373e+00  1.5194191254180027e+00  1.7517866557592841e+00  2.0689214364104176e+00  2.0178275337176284e+00  1.5209487111572952e+00  1.7370732296626348e+00  1.5189898549932652e+00  1.6126926645740765e+00  1.7201747307513136e+00  1.8554406880366250e+00  1.8171679263404263e+00  2.0612058134386269e+00  2.0651442545714573e+00  2.0878069909367523e+00  1.8414287560449796e+00  1.8414764108211206e+00  1.5167764906317061e+00  2.0183908642416974e+00  1.5328908096136027e+00  1.6445811556334475e+00  1.5298392245208845e+00  1.5427803187872315e+00  1.5297852229793456e+00  2.0694526071178925e+00  1.5105664143582891e+00  2.0874586226744456e+00  1.9214561443560669e+00  1.5249116195229044e+00  1.9596096442972477e+00  1.5334363512045612e+00  2.1108398961074761e+00  1.6999177126176379e+00  1.7537795305473207e+00  1.6966976017276809e+00  1.5267362464747645e+00  1.5122931999735691e+00  1.9828629018906925e+00  1.9585019657524549e+00  1.8397243279669830e+00  1.9768697695114386e+00  1.9590195460491608e+00  1.6934993557936715e+00  1.5169274079780837e+00  1.5253447577521093e+00  1.5015336678525808e+00  1.8810645848368863e+00  1.8294148548431375e+00  1.9283117365727913e+00  1.9547782263060911e+00  1.8932842137574890e+00  1.8730650598047489e+00  1.6880910377218705e+00  1.7351095225184052e+00  1.5073277767136173e+00  2.1089451875481005e+00  1.5034153128679837e+00  1.8898439658931665e+00  1.5162195561254950e+00  1.6627590163147743e+00  2.0495468739237088e+00  1.7457731451910159e+00  1.6661360451478222e+00  1.7105644866773482e+00  1.7424083405965880e+00  1.5308896614048855e+00  2.1116168658040655e+00  2.0246113161326602e+00  1.4957317970867554e+00  1.5213933150983825e+00  1.4970716884486328e+00  1.7325168963946567e+00  1.7457481012221641e+00  1.7325168994467359e+00  1.7457512671073045e+00  1.6519486264841678e+00  2.0914803936108179e+00  1.7199759036612736e+00  1.5197911805867235e+00  1.4989198720921755e+00  1.8755703002818203e+00  1.9827189664305624e+00  1.9147494451484419e+00  1.8563541127247811e+00  1.9744836497046316e+00  1.8551728046501785e+00  1.9366683883587772e+00  1.8563703611312230e+00  1.4999995123224181e+00  1.5002489146809979e+00  2.0367516857726744e+00  2.0357124566334241e+00  1.9786613367131329e+00  1.6357813990724410e+00  1.4965687817361675e+00  2.0707604621861484e+00  2.0812307197412512e+00  1.7910904281351974e+00  1.7058853546698030e+00  1.4911517526757665e+00  1.8625417863360216e+00  1.9510048869152119e+00  1.8671340845157731e+00  1.6382572876981474e+00  1.5118715778056981e+00  2.0382261830709454e+00  1.5084596224205618e+00  1.4887110744697010e+00  1.5171573232155138e+00  1.9117299116484816e+00  1.9570147215591798e+00  2.0069263526396277e+00  1.9467307764605570e+00  1.7722003492600671e+00  1.7466907597939858e+00  1.6468718212226312e+00  1.8277996432730239e+00  1.7068056029490977e+00  1.7759610495121569e+00  1.4976211396876646e+00  1.7017279387826791e+00  1.4840306535258869e+00  1.8921208876271001e+00  1.5105931584668668e+00  1.7018024520548962e+00  1.9092214999676671e+00  1.4829256172946030e+00  2.0031052950416774e+00  1.8932104566070771e+00  1.5142091183796598e+00  2.0216627798714328e+00  2.0027117931956733e+00  1.9483468155095340e+00  1.7785531016670773e+00  2.0413140188540129e+00  1.4791315587427978e+00  1.7138975449529452e+00  2.0686469522647473e+00  1.9986175375748949e+00  2.0621778766174814e+00  1.4797376254250876e+00  1.5101831038319713e+00  1.8157746694188019e+00  1.6185772020271934e+00  1.6925693338291032e+00  1.4917716913684569e+00  1.8182052063364977e+00  2.0859210804484687e+00  1.8439799251684887e+00  2.0246802736625260e+00  1.9919866087719664e+00  2.0632673141961320e+00  1.8246134243536574e+00  1.7347211466748205e+00  1.9438464976194720e+00  1.9208968074678234e+00  1.4989754240344881e+00  1.8940898402648749e+00  1.8258016452226771e+00  1.8269956082417418e+00  2.0349203657375283e+00  1.9167209391128830e+00  2.0898695939225127e+00  2.0489284514411237e+00  1.7791933826916564e+00  1.9755341918757074e+00  1.9467109198934838e+00  1.6417806743541474e+00  1.8459501221948826e+00  1.8240143390233456e+00  1.9313767173440022e+00  1.7748565380323105e+00  1.7664929081499654e+00  1.4890255307048967e+00  1.7924919561934021e+00  2.0074262778688294e+00  1.4885499701991469e+00  1.4870562454211376e+00  1.6437554765279625e+00  2.0887391926791397e+00  2.0311057743284429e+00  1.6213133437302927e+00  1.8168193856926880e+00  1.9177285650323450e+00  1.8016341855856242e+00  1.7985034480882065e+00  1.6801228980695906e+00  1.5036321569060374e+00  1.6753974636161795e+00  2.0155148674388035e+00  1.4667203892881351e+00  1.6520037283459286e+00  1.6451258471094328e+00  1.4956090713882970e+00  1.5284852084168077e+00  2.1131974218193768e+00  2.0320269624986662e+00  1.9768063772426905e+00  2.0205935601092810e+00  1.8281878352655851e+00  1.9227007796820368e+00  1.8030551354890409e+00  1.9305382909106878e+00  1.6768954719345004e+00  2.0523343543369958e+00  1.7294485935177222e+00  2.0449015538435602e+00  1.4854862347458540e+00  1.4827228079168946e+00  1.4626944714807295e+00  1.6495393615732767e+00  2.0952261749704100e+00  1.7022780861207871e+00  1.6726651965974693e+00  1.6374755796537794e+00  1.6487407122687472e+00  1.7237322134222930e+00  1.4692629282723131e+00  1.4829381909113397e+00  1.8725136826466369e+00  1.8699667696375628e+00  1.6907588408187630e+00  1.6315881331240654e+00  1.9090006641405164e+00  1.6187665486915355e+00  1.6651372339603094e+00  1.6662639912548187e+00  2.0991047008920476e+00  2.1136734104263208e+00  2.0455273281354707e+00  1.6182606697807256e+00  1.7183746251296195e+00  1.3775153876827009e+00  1.4850020769554182e+00  1.6077599140021641e+00  1.4819929824863527e+00  1.5890265959187257e+00  1.4809550465057035e+00  1.4920336790718547e+00  1.8882435436632148e+00  1.7415966987025306e+00  1.8272878672304522e+00  1.5622483599248189e+00  1.9948849396316897e+00  1.6986674111437448e+00  1.7061403592921180e+00  1.9581063373201411e+00  1.3775153876827009e+00  1.8127766686300908e+00  1.7836907301558842e+00  2.0883080953059001e+00  1.6381877843682275e+00  1.9076688040206267e+00  1.7685207531928717e+00  1.8865804388548209e+00  2.0105754550558483e+00  1.9455538011791422e+00  1.9833027971940922e+00  1.9111760118530525e+00  1.9415516046909556e+00  1.9825627986413590e+00  1.9382664150153728e+00  2.0869641064291362e+00  1.3775153876827009e+00  1.4672646832684357e+00  1.8902388524622364e+00  1.6542564652267620e+00  1.6597722468052301e+00  1.3775153876827009e+00  1.4822241929944402e+00  2.0205972724921377e+00  1.9942487092856684e+00  2.0297974106266383e+00  2.0055431425233463e+00  2.1106709851336563e+00  1.6084488686903922e+00  1.3775153876827009e+00  1.4864098001456010e+00  1.6006291841700968e+00  1.9409959922214128e+00  1.4749913547237139e+00  1.9367218193529216e+00  1.7628400421242461e+00  1.5938393050072135e+00  2.0100424086054116e+00  1.5652273865827584e+00  1.9448815518412330e+00  1.7974010804837550e+00  1.4661557093370008e+00  2.0665745305839152e+00  1.6865743874939600e+00  1.9018714162222221e+00  2.0479566998116359e+00  1.9417745001278248e+00  1.9108796454269172e+00  1.6091968347717900e+00  1.7469372789220301e+00  1.8186835424054260e+00  1.9815073428153007e+00  1.8811808330542170e+00  1.6297645550173723e+00  1.5896911744494411e+00  1.8571205763984711e+00  1.9454616376686464e+00  1.7874587955283703e+00  2.0711990622345131e+00  1.6142430750365402e+00  1.8068942780537831e+00  1.5934678810862930e+00  1.3775153876827009e+00  1.8562271503690573e+00  1.3775153876827007e+00  1.6916446949864805e+00  1.7546595907013613e+00  1.9634731803215688e+00  1.3775153876827009e+00  1.9841761398667879e+00  1.4750427259328620e+00  1.6381995952130264e+00  1.6506754982442220e+00  2.0263693040565012e+00  1.7107434373081121e+00  1.8008272787887232e+00  1.9376328140317234e+00  2.0797902045859966e+00  1.7639963070213454e+00  1.5771403656386087e+00  1.5827936051546063e+00  1.4829201894995898e+00  1.7227864418700849e+00  1.8361413845300629e+00  1.9867921027876085e+00  2.0474558077035674e+00  1.4779326976854579e+00  2.0703893451091830e+00  1.5838157707098943e+00  1.3775153876827009e+00  1.7671088796782715e+00  1.5990771768136514e+00  1.4723657865917734e+00  1.7912755981345601e+00  1.8426247560278051e+00  2.0514935220394670e+00  1.6931312133739647e+00  1.6991022775226756e+00  1.6666812414247241e+00  2.0992782397955412e+00  2.1019584041811901e+00  1.6692020617926047e+00  1.4748403860635442e+00  1.8018753487368910e+00  1.5684954589292999e+00  1.8780787996573360e+00  1.9407489505498281e+00  1.5743463618456761e+00  2.0344819358633885e+00  1.9804466651121133e+00  1.9841329558155620e+00  1.7780373975359749e+00  1.6943407658026397e+00  1.3775153876827007e+00  1.8755698375115046e+00  2.1140954053178480e+00  2.1036265856884651e+00  1.8080154105108996e+00  1.9082430512341628e+00  1.4568601435197093e+00  1.8471837925466155e+00  2.0726431705621779e+00  1.7650982942660425e+00  1.7220145336101045e+00  1.8740745372802903e+00  1.5444177498282425e+00  1.3775153876827009e+00  1.4732843540592107e+00  1.5610003097582450e+00  2.0823589304546228e+00  1.8050925013054424e+00  1.5725359299116497e+00  2.0692783594524498e+00  2.1019899760950875e+00  2.0770513162271236e+00  1.9194066253975139e+00  1.3775153876827009e+00  1.8919807781278732e+00  1.9880150763234241e+00  1.6270254417991501e+00  1.5728197112919262e+00  1.9656725606059653e+00  1.9746339843946452e+00  1.7007396077444801e+00  1.6380983660429729e+00  2.0642901333268604e+00  1.7684478518993005e+00  1.4994094795678401e+00  1.9068281452435263e+00  1.9273591769634468e+00  1.9099300463042816e+00  1.8542534831531015e+00  1.9954794747795312e+00  2.0058657621487890e+00  1.7069645191945289e+00  1.9765072147951364e+00  1.9261400174420997e+00  1.9985938837903021e+00  1.9806367906360458e+00  2.0488325745449822e+00  1.4780872803692136e+00  1.7349030485916819e+00  1.9562522953031223e+00  1.7427366941243927e+00  1.9784776226920460e+00  1.7754646503343177e+00  1.8437476075966770e+00  1.8118049400051761e+00  1.4888418640874406e+00  1.9254122889540963e+00  1.5109600611137641e+00  2.1057869474412483e+00  1.4586727420964261e+00  1.7858172615922205e+00  1.4733331765712880e+00  1.4595543205712762e+00  1.6890849850780496e+00  1.7096853560289202e+00  1.9007442976703544e+00  1.3775153876827007e+00  1.4698991747886629e+00  1.8288129545620484e+00  1.9747102141713531e+00  2.0208514775839848e+00  1.3775153876827009e+00  1.9343379246733303e+00  1.6941946128179639e+00  1.6652828163971480e+00  1.6941007713868796e+00  1.6652952490477750e+00  1.4739101103526266e+00  1.4668386532986601e+00  1.5563198084129823e+00  1.5675148468468239e+00  1.4607985833880779e+00  1.4729427042273138e+00  1.8492477746610432e+00  1.6801233097221233e+00  1.6983711189489492e+00  1.8370718704577687e+00  2.0494137697820971e+00  2.0610158273505212e+00  1.8494620211231501e+00  2.0475307603994750e+00  1.4765816397475884e+00  2.0988896185147281e+00  2.1033835878157645e+00  2.0146622115295130e+00  2.0806017439403730e+00  1.7623850126270995e+00  1.8448418456822782e+00  1.5997619297865076e+00  1.5739770881138735e+00  2.0853091977569469e+00  1.5865973508835383e+00  1.5971847409584807e+00  1.5540310637856409e+00  1.3775153876827007e+00  1.4637413462299653e+00  1.5560221578766811e+00  1.6050633526423463e+00  1.8967124414973340e+00  1.8573459189779054e+00  1.7695770550275840e+00  1.6455583495032609e+00  2.0131801528995283e+00  1.8471544010546828e+00  1.7477430337003590e+00  2.0892240288440531e+00  1.7993137119021041e+00  1.8311764344899570e+00  1.8796546870758528e+00  1.4679285636973298e+00  1.5956405936552975e+00  1.3775153876827011e+00  1.4630806646671783e+00  2.0721046211859724e+00  1.6982113514688337e+00  1.4623730627714917e+00  1.5578450510591972e+00  2.0421109638910835e+00  1.8780703091261888e+00  1.8555501679718494e+00  1.9113071664321155e+00  1.6013417862050030e+00  1.5664557786760731e+00  1.7642165194836192e+00  1.7365209612882664e+00  1.7707927601534315e+00  1.9181567157879280e+00  1.7377196720715022e+00  1.5717111606548713e+00  1.4609763886755220e+00  1.5919685783805841e+00  2.1051678582699807e+00  1.5963190524829323e+00  2.0509746228289458e+00  2.0989082541190864e+00  1.6591159585047850e+00  1.7462684353509546e+00  1.6928628040672735e+00  1.9727255693875645e+00  2.0616361663673999e+00  2.0961646267019187e+00  1.8556773890655003e+00  1.9268064496977879e+00  2.0854495515317661e+00  1.8002325050522734e+00  1.9923137078566162e+00  2.0777615371572447e+00  1.4660421919871620e+00  2.0626499484870369e+00  1.7926642710250980e+00  1.8082900978505794e+00  1.8800908288459330e+00  1.8906924377771528e+00  1.7605349136671604e+00  1.6999630361625266e+00  1.6197649860303109e+00  1.4532540479229603e+00  1.6517901907167483e+00  1.5631153221000462e+00  1.4636004545506893e+00  1.3775153876827007e+00  1.8908418352156804e+00  1.9533893486385636e+00  1.3775153876827009e+00  1.9925182363937681e+00  1.9446405017608943e+00  2.0071124970971272e+00  1.9638247657607715e+00  1.8140717741087846e+00  2.1082862496326458e+00  1.4629917852741792e+00  1.5663009215274051e+00  1.9196925127575677e+00  1.5792432949040867e+00  1.5656771454495286e+00  1.7882728247494628e+00  1.4538482706413767e+00  1.5604771872249232e+00  1.4670528111959793e+00  1.4568783266447918e+00  2.0257487088520523e+00  2.1148371995565021e+00  1.6235870324766764e+00  2.0336847166118566e+00  1.5980321650611575e+00  1.4695691862275324e+00  1.3775153876827009e+00  1.3775153876827007e+00  1.8656947659172338e+00  1.8471104989084128e+00  1.8647277637843240e+00  2.0578102010719550e+00  2.0379354944476975e+00  1.6249711373928346e+00  1.8871075352235356e+00  1.3775153876827009e+00  1.4646875400113661e+00  1.3775153876827009e+00  1.5775948036880012e+00  2.0397901947973640e+00  2.0157918446031702e+00  1.8428062207796700e+00  1.9663298167794141e+00  1.8115632691226249e+00  1.8669118782300451e+00  1.8798244557427599e+00  2.0206706080897177e+00  1.4607237970132938e+00  2.0138917886781753e+00  1.4554574522613291e+00  1.9162008506440877e+00  1.5621698184230384e+00  1.6008092306718944e+00  1.9918197102522743e+00  1.8177703540798060e+00  1.8580073877694332e+00  1.8462032869274689e+00  1.8819312030930690e+00  1.3775153876827009e+00  2.0072521808749402e+00  1.4556439742965082e+00  1.5838811625105800e+00  1.6907624649909563e+00  1.3775153876827009e+00  1.3775153876827011e+00  1.4502046741397714e+00  1.5497780117336344e+00  1.4632344067037828e+00  1.3775153876827009e+00  1.4581003835602298e+00  1.4603178674216686e+00  2.0866201901751591e+00  1.3775153876827009e+00  2.0503075662483363e+00  1.5512483393143395e+00  1.5480121749956257e+00  1.9511648287979459e+00  1.9187263586414678e+00  1.9477060897814669e+00  1.7786246365619129e+00  1.6309032230054028e+00  1.7511994729110014e+00  1.7800730781502578e+00  1.9762830457636962e+00  1.8538614794295